--------------------------------------------------------------------------
[[56893,1],3]: A high-performance Open MPI point-to-point messaging module
was unable to find any relevant network interfaces:

Module: OpenFabrics (openib)
  Host: worker2004

Another transport will be used instead, although this may result in
lower performance.
--------------------------------------------------------------------------

     Program PWSCF v.6.6 starts on 21Feb2021 at 23:49:35 

     This program is part of the open-source Quantum ESPRESSO suite
     for quantum simulation of materials; please cite
         "P. Giannozzi et al., J. Phys.:Condens. Matter 21 395502 (2009);
         "P. Giannozzi et al., J. Phys.:Condens. Matter 29 465901 (2017);
          URL http://www.quantum-espresso.org", 
     in publications or presentations arising from this work. More details at
     http://www.quantum-espresso.org/quote

     Parallel version (MPI), running on    40 processors

     MPI processes distributed on     1 nodes
     K-points division:     npool     =      40
     Fft bands division:     nmany     =       1
     Waiting for input...
     Reading input from standard input
Warning: card &IONS ignored
Warning: card / ignored
Warning: card &CELL ignored
Warning: card / ignored

     Current dimensions of program PWSCF are:
     Max number of different atomic species (ntypx) = 10
     Max number of k-points (npk) =  40000
     Max angular momentum in pseudopotentials (lmaxx) =  3

     Atomic positions and unit cell read from directory:
     ./scratch/bulknno.save/
     Atomic positions from file used, from input discarded

     file Cl.alex.UPF: wavefunction(s)  3S renormalized

     Subspace diagonalization in iterative solution of the eigenvalue problem:
     a serial algorithm will be used

     Message from routine setup:
     using ibrav=0 with symmetry is DISCOURAGED, use correct ibrav instead

     G-vector sticks info
     --------------------
     sticks:   dense  smooth     PW     G-vecs:    dense   smooth      PW
     Sum        1159     649    199                56707    23119    4189



     bravais-lattice index     =            0
     lattice parameter (alat)  =       6.4818  a.u.
     unit-cell volume          =     419.4163 (a.u.)^3
     number of atoms/cell      =            3
     number of atomic types    =            2
     number of electrons       =        26.00
     number of Kohn-Sham states=           17
     kinetic-energy cutoff     =      55.0000  Ry
     charge density cutoff     =     400.0000  Ry
     Exchange-correlation= PBE
                           (   1   4   3   4   0   0   0)

     celldm(1)=   6.481761  celldm(2)=   0.000000  celldm(3)=   0.000000
     celldm(4)=   0.000000  celldm(5)=   0.000000  celldm(6)=   0.000000

     crystal axes: (cart. coord. in units of alat)
               a(1) = (   1.000000   0.000000   0.000000 )  
               a(2) = (  -0.500000   0.866025   0.000000 )  
               a(3) = (   0.000000   0.000000   1.778426 )  

     reciprocal axes: (cart. coord. in units 2 pi/alat)
               b(1) = (  1.000000  0.577350 -0.000000 )  
               b(2) = (  0.000000  1.154701  0.000000 )  
               b(3) = (  0.000000 -0.000000  0.562295 )  


     PseudoPot. # 1 for Ti read from file:
     /mnt/home/ageorgescu/pseudo/Ti.alex.UPF
     MD5 check sum: b76d217d12edcba43ee44e0149fc8e5f
     Pseudo is Ultrasoft, Zval = 12.0
     Generated by new atomic code, or converted to UPF format
     Using radial grid of  851 points,  6 beta functions with: 
                l(1) =   0
                l(2) =   0
                l(3) =   1
                l(4) =   1
                l(5) =   2
                l(6) =   2
     Q(r) pseudized with  7 coefficients,  rinner =    2.000   2.000   2.000
                                                       2.000   2.000

     PseudoPot. # 2 for Cl read from file:
     /mnt/home/ageorgescu/pseudo/Cl.alex.UPF
     MD5 check sum: edc2b0566b069f5a9549c984da9285bb
     Pseudo is Ultrasoft + core correction, Zval =  7.0
     Generated using "atomic" code by A. Dal Corso v.6.3
     Using radial grid of 1157 points,  4 beta functions with: 
                l(1) =   0
                l(2) =   0
                l(3) =   1
                l(4) =   1
     Q(r) pseudized with 0 coefficients 


     atomic species   valence    mass     pseudopotential
        Ti            12.00    51.99610     Ti( 1.00)
        Cl             7.00   126.90447     Cl( 1.00)


     Simplified LDA+U calculation (l_max = 2) with parameters (eV):
     atomic species    L          U    alpha       J0     beta
        Ti             2     0.0000   0.0000   0.0000   0.0000



      4 Sym. Ops., with inversion, found


                                    s                        frac. trans.

      isym =  1     identity                                     

 cryst.   s( 1) = (     1          0          0      )
                  (     0          1          0      )
                  (     0          0          1      )

 cart.    s( 1) = (  1.0000000  0.0000000  0.0000000 )
                  (  0.0000000  1.0000000  0.0000000 )
                  (  0.0000000  0.0000000  1.0000000 )


      isym =  2     180 deg rotation - cryst. axis [0,1,0]       

 cryst.   s( 2) = (    -1         -1          0      )
                  (     0          1          0      )
                  (     0          0         -1      )

 cart.    s( 2) = ( -0.5000000 -0.8660254  0.0000000 )
                  ( -0.8660254  0.5000000  0.0000000 )
                  (  0.0000000  0.0000000 -1.0000000 )


      isym =  3     inversion                                    

 cryst.   s( 3) = (    -1          0          0      )
                  (     0         -1          0      )
                  (     0          0         -1      )

 cart.    s( 3) = ( -1.0000000  0.0000000  0.0000000 )
                  (  0.0000000 -1.0000000  0.0000000 )
                  (  0.0000000  0.0000000 -1.0000000 )


      isym =  4     inv. 180 deg rotation - cryst. axis [0,1,0]  

 cryst.   s( 4) = (     1          1          0      )
                  (     0         -1          0      )
                  (     0          0          1      )

 cart.    s( 4) = (  0.5000000  0.8660254  0.0000000 )
                  (  0.8660254 -0.5000000  0.0000000 )
                  (  0.0000000  0.0000000  1.0000000 )


   Cartesian axes

     site n.     atom                  positions (alat units)
         1           Ti  tau(   1) = (   0.0000000   0.0000000   0.0000000  )
         2           Cl  tau(   2) = (   0.4999500   0.2886463   0.4446064  )
         3           Cl  tau(   3) = (   0.0000500   0.5773791  -0.4446064  )

   Crystallographic axes

     site n.     atom                  positions (cryst. coord.)
         1           Ti  tau(   1) = (  0.0000000  0.0000000  0.0000000  )
         2           Cl  tau(   2) = (  0.6666000  0.3333000  0.2500000  )
         3           Cl  tau(   3) = (  0.3334000  0.6667000 -0.2500000  )

     number of k points=    96  Gaussian smearing, width (Ry)=  0.0040
                       cart. coord. in units 2pi/alat
        k(    1) = (   0.0000000   0.0000000   0.0000000), wk =   0.0004296
        k(    2) = (   0.0200000   0.0115470   0.0000000), wk =   0.0008591
        k(    3) = (   0.0400000   0.0230940   0.0000000), wk =   0.0012887
        k(    4) = (   0.0600000   0.0346410   0.0000000), wk =   0.0017182
        k(    5) = (   0.0800000   0.0461880   0.0000000), wk =   0.0021478
        k(    6) = (   0.1000000   0.0577350   0.0000000), wk =   0.0025773
        k(    7) = (   0.1200000   0.0692820   0.0000000), wk =   0.0030069
        k(    8) = (   0.1400000   0.0808290   0.0000000), wk =   0.0034364
        k(    9) = (   0.1600000   0.0923760   0.0000000), wk =   0.0038660
        k(   10) = (   0.1800000   0.1039230   0.0000000), wk =   0.0042955
        k(   11) = (   0.2000000   0.1154701   0.0000000), wk =   0.0047251
        k(   12) = (   0.2200000   0.1270171   0.0000000), wk =   0.0051546
        k(   13) = (   0.2400000   0.1385641   0.0000000), wk =   0.0055842
        k(   14) = (   0.2600000   0.1501111   0.0000000), wk =   0.0060137
        k(   15) = (   0.2800000   0.1616581   0.0000000), wk =   0.0064433
        k(   16) = (   0.3000000   0.1732051   0.0000000), wk =   0.0068729
        k(   17) = (   0.3200000   0.1847521   0.0000000), wk =   0.0073024
        k(   18) = (   0.3400000   0.1962991   0.0000000), wk =   0.0077320
        k(   19) = (   0.3600000   0.2078461   0.0000000), wk =   0.0081615
        k(   20) = (   0.3800000   0.2193931   0.0000000), wk =   0.0085911
        k(   21) = (   0.4000000   0.2309401   0.0000000), wk =   0.0090206
        k(   22) = (   0.4200000   0.2424871   0.0000000), wk =   0.0094502
        k(   23) = (   0.4400000   0.2540341   0.0000000), wk =   0.0098797
        k(   24) = (   0.4600000   0.2655811   0.0000000), wk =   0.0103093
        k(   25) = (   0.4800000   0.2771281   0.0000000), wk =   0.0107388
        k(   26) = (   0.5000000   0.2886751   0.0000000), wk =   0.0111684
        k(   27) = (   0.5000000   0.3117691   0.0000000), wk =   0.0115979
        k(   28) = (   0.5000000   0.3348632   0.0000000), wk =   0.0120275
        k(   29) = (   0.5000000   0.3579572   0.0000000), wk =   0.0124570
        k(   30) = (   0.5000000   0.3810512   0.0000000), wk =   0.0128866
        k(   31) = (   0.5000000   0.4041452   0.0000000), wk =   0.0133162
        k(   32) = (   0.5000000   0.4272392   0.0000000), wk =   0.0137457
        k(   33) = (   0.5000000   0.4503332   0.0000000), wk =   0.0141753
        k(   34) = (   0.5000000   0.4734272   0.0000000), wk =   0.0146048
        k(   35) = (   0.5000000   0.4965212   0.0000000), wk =   0.0150344
        k(   36) = (   0.5000000   0.5196152   0.0000000), wk =   0.0154639
        k(   37) = (   0.5000000   0.5427093   0.0000000), wk =   0.0158935
        k(   38) = (   0.5000000   0.5658033   0.0000000), wk =   0.0163230
        k(   39) = (   0.5000000   0.5888973   0.0000000), wk =   0.0167526
        k(   40) = (   0.5000000   0.6119913   0.0000000), wk =   0.0171821
        k(   41) = (   0.5000000   0.6350853   0.0000000), wk =   0.0176117
        k(   42) = (   0.5000000   0.6581793   0.0000000), wk =   0.0180412
        k(   43) = (   0.5000000   0.6812733   0.0000000), wk =   0.0184708
        k(   44) = (   0.5000000   0.7043673   0.0000000), wk =   0.0189003
        k(   45) = (   0.5000000   0.7274613   0.0000000), wk =   0.0193299
        k(   46) = (   0.5000000   0.7505553   0.0000000), wk =   0.0197595
        k(   47) = (   0.5000000   0.7736494   0.0000000), wk =   0.0201890
        k(   48) = (   0.5000000   0.7967434   0.0000000), wk =   0.0206186
        k(   49) = (   0.5000000   0.8198374   0.0000000), wk =   0.0210481
        k(   50) = (   0.5000000   0.8429314   0.0000000), wk =   0.0214777
        k(   51) = (   0.5000000   0.8660254   0.0000000), wk =   0.0219072
        k(   52) = (   0.4857100   0.8412744   0.0000000), wk =   0.0223368
        k(   53) = (   0.4714300   0.8165407   0.0000000), wk =   0.0227663
        k(   54) = (   0.4571400   0.7917897   0.0000000), wk =   0.0231959
        k(   55) = (   0.4428600   0.7670560   0.0000000), wk =   0.0236254
        k(   56) = (   0.4285700   0.7423050   0.0000000), wk =   0.0240550
        k(   57) = (   0.4142900   0.7175713   0.0000000), wk =   0.0244845
        k(   58) = (   0.4000000   0.6928203   0.0000000), wk =   0.0249141
        k(   59) = (   0.3857100   0.6680693   0.0000000), wk =   0.0253436
        k(   60) = (   0.3714300   0.6433356   0.0000000), wk =   0.0257732
        k(   61) = (   0.3571400   0.6185846   0.0000000), wk =   0.0262027
        k(   62) = (   0.3428600   0.5938509   0.0000000), wk =   0.0266323
        k(   63) = (   0.3285700   0.5690999   0.0000000), wk =   0.0270619
        k(   64) = (   0.3142900   0.5443662   0.0000000), wk =   0.0274914
        k(   65) = (   0.3000000   0.5196152   0.0000000), wk =   0.0279210
        k(   66) = (   0.2857100   0.4948642   0.0000000), wk =   0.0283505
        k(   67) = (   0.2714300   0.4701306   0.0000000), wk =   0.0287801
        k(   68) = (   0.2571400   0.4453795   0.0000000), wk =   0.0292096
        k(   69) = (   0.2428600   0.4206459   0.0000000), wk =   0.0296392
        k(   70) = (   0.2285700   0.3958949   0.0000000), wk =   0.0300687
        k(   71) = (   0.2142900   0.3711612   0.0000000), wk =   0.0304983
        k(   72) = (   0.2000000   0.3464102   0.0000000), wk =   0.0309278
        k(   73) = (   0.1857100   0.3216592   0.0000000), wk =   0.0313574
        k(   74) = (   0.1714300   0.2969255   0.0000000), wk =   0.0317869
        k(   75) = (   0.1571400   0.2721745   0.0000000), wk =   0.0322165
        k(   76) = (   0.1428600   0.2474408   0.0000000), wk =   0.0326460
        k(   77) = (   0.1285700   0.2226898   0.0000000), wk =   0.0330756
        k(   78) = (   0.1142900   0.1979561   0.0000000), wk =   0.0335052
        k(   79) = (   0.1000000   0.1732051   0.0000000), wk =   0.0339347
        k(   80) = (   0.0857100   0.1484541   0.0000000), wk =   0.0343643
        k(   81) = (   0.0714300   0.1237204   0.0000000), wk =   0.0347938
        k(   82) = (   0.0571400   0.0989694   0.0000000), wk =   0.0352234
        k(   83) = (   0.0428600   0.0742357   0.0000000), wk =   0.0356529
        k(   84) = (   0.0285700   0.0494847   0.0000000), wk =   0.0360825
        k(   85) = (   0.0142900   0.0247510   0.0000000), wk =   0.0365120
        k(   86) = (   0.0000000   0.0000000   0.0000000), wk =   0.0369416
        k(   87) = (   0.0000000   0.0000000   0.0281148), wk =   0.0373711
        k(   88) = (   0.0000000   0.0000000   0.0562295), wk =   0.0378007
        k(   89) = (   0.0000000   0.0000000   0.0843443), wk =   0.0382302
        k(   90) = (   0.0000000   0.0000000   0.1124590), wk =   0.0386598
        k(   91) = (   0.0000000   0.0000000   0.1405738), wk =   0.0390893
        k(   92) = (   0.0000000   0.0000000   0.1686885), wk =   0.0395189
        k(   93) = (   0.0000000   0.0000000   0.1968033), wk =   0.0399485
        k(   94) = (   0.0000000   0.0000000   0.2249180), wk =   0.0403780
        k(   95) = (   0.0000000   0.0000000   0.2530328), wk =   0.0408076
        k(   96) = (   0.0000000   0.0000000   0.2811475), wk =   0.0412371

                       cryst. coord.
        k(    1) = (   0.0000000   0.0000000   0.0000000), wk =   0.0004296
        k(    2) = (   0.0200000   0.0000000   0.0000000), wk =   0.0008591
        k(    3) = (   0.0400000   0.0000000   0.0000000), wk =   0.0012887
        k(    4) = (   0.0600000   0.0000000   0.0000000), wk =   0.0017182
        k(    5) = (   0.0800000   0.0000000   0.0000000), wk =   0.0021478
        k(    6) = (   0.1000000   0.0000000   0.0000000), wk =   0.0025773
        k(    7) = (   0.1200000   0.0000000   0.0000000), wk =   0.0030069
        k(    8) = (   0.1400000   0.0000000   0.0000000), wk =   0.0034364
        k(    9) = (   0.1600000   0.0000000   0.0000000), wk =   0.0038660
        k(   10) = (   0.1800000   0.0000000   0.0000000), wk =   0.0042955
        k(   11) = (   0.2000000   0.0000000   0.0000000), wk =   0.0047251
        k(   12) = (   0.2200000   0.0000000   0.0000000), wk =   0.0051546
        k(   13) = (   0.2400000   0.0000000   0.0000000), wk =   0.0055842
        k(   14) = (   0.2600000   0.0000000   0.0000000), wk =   0.0060137
        k(   15) = (   0.2800000   0.0000000   0.0000000), wk =   0.0064433
        k(   16) = (   0.3000000   0.0000000   0.0000000), wk =   0.0068729
        k(   17) = (   0.3200000   0.0000000   0.0000000), wk =   0.0073024
        k(   18) = (   0.3400000   0.0000000   0.0000000), wk =   0.0077320
        k(   19) = (   0.3600000   0.0000000   0.0000000), wk =   0.0081615
        k(   20) = (   0.3800000   0.0000000   0.0000000), wk =   0.0085911
        k(   21) = (   0.4000000   0.0000000   0.0000000), wk =   0.0090206
        k(   22) = (   0.4200000   0.0000000   0.0000000), wk =   0.0094502
        k(   23) = (   0.4400000   0.0000000   0.0000000), wk =   0.0098797
        k(   24) = (   0.4600000   0.0000000   0.0000000), wk =   0.0103093
        k(   25) = (   0.4800000   0.0000000   0.0000000), wk =   0.0107388
        k(   26) = (   0.5000000   0.0000000   0.0000000), wk =   0.0111684
        k(   27) = (   0.5000000   0.0200000   0.0000000), wk =   0.0115979
        k(   28) = (   0.5000000   0.0400000   0.0000000), wk =   0.0120275
        k(   29) = (   0.5000000   0.0600000   0.0000000), wk =   0.0124570
        k(   30) = (   0.5000000   0.0800000   0.0000000), wk =   0.0128866
        k(   31) = (   0.5000000   0.1000000   0.0000000), wk =   0.0133162
        k(   32) = (   0.5000000   0.1200000   0.0000000), wk =   0.0137457
        k(   33) = (   0.5000000   0.1400000   0.0000000), wk =   0.0141753
        k(   34) = (   0.5000000   0.1600000   0.0000000), wk =   0.0146048
        k(   35) = (   0.5000000   0.1800000   0.0000000), wk =   0.0150344
        k(   36) = (   0.5000000   0.2000000   0.0000000), wk =   0.0154639
        k(   37) = (   0.5000000   0.2200000   0.0000000), wk =   0.0158935
        k(   38) = (   0.5000000   0.2400000   0.0000000), wk =   0.0163230
        k(   39) = (   0.5000000   0.2600000   0.0000000), wk =   0.0167526
        k(   40) = (   0.5000000   0.2800000   0.0000000), wk =   0.0171821
        k(   41) = (   0.5000000   0.3000000   0.0000000), wk =   0.0176117
        k(   42) = (   0.5000000   0.3200000   0.0000000), wk =   0.0180412
        k(   43) = (   0.5000000   0.3400000   0.0000000), wk =   0.0184708
        k(   44) = (   0.5000000   0.3600000   0.0000000), wk =   0.0189003
        k(   45) = (   0.5000000   0.3800000   0.0000000), wk =   0.0193299
        k(   46) = (   0.5000000   0.4000000   0.0000000), wk =   0.0197595
        k(   47) = (   0.5000000   0.4200000   0.0000000), wk =   0.0201890
        k(   48) = (   0.5000000   0.4400000   0.0000000), wk =   0.0206186
        k(   49) = (   0.5000000   0.4600000   0.0000000), wk =   0.0210481
        k(   50) = (   0.5000000   0.4800000   0.0000000), wk =   0.0214777
        k(   51) = (   0.5000000   0.5000000   0.0000000), wk =   0.0219072
        k(   52) = (   0.4857100   0.4857100   0.0000000), wk =   0.0223368
        k(   53) = (   0.4714300   0.4714300   0.0000000), wk =   0.0227663
        k(   54) = (   0.4571400   0.4571400   0.0000000), wk =   0.0231959
        k(   55) = (   0.4428600   0.4428600   0.0000000), wk =   0.0236254
        k(   56) = (   0.4285700   0.4285700   0.0000000), wk =   0.0240550
        k(   57) = (   0.4142900   0.4142900   0.0000000), wk =   0.0244845
        k(   58) = (   0.4000000   0.4000000   0.0000000), wk =   0.0249141
        k(   59) = (   0.3857100   0.3857100   0.0000000), wk =   0.0253436
        k(   60) = (   0.3714300   0.3714300   0.0000000), wk =   0.0257732
        k(   61) = (   0.3571400   0.3571400   0.0000000), wk =   0.0262027
        k(   62) = (   0.3428600   0.3428600   0.0000000), wk =   0.0266323
        k(   63) = (   0.3285700   0.3285700   0.0000000), wk =   0.0270619
        k(   64) = (   0.3142900   0.3142900   0.0000000), wk =   0.0274914
        k(   65) = (   0.3000000   0.3000000   0.0000000), wk =   0.0279210
        k(   66) = (   0.2857100   0.2857100   0.0000000), wk =   0.0283505
        k(   67) = (   0.2714300   0.2714300   0.0000000), wk =   0.0287801
        k(   68) = (   0.2571400   0.2571400   0.0000000), wk =   0.0292096
        k(   69) = (   0.2428600   0.2428600   0.0000000), wk =   0.0296392
        k(   70) = (   0.2285700   0.2285700   0.0000000), wk =   0.0300687
        k(   71) = (   0.2142900   0.2142900   0.0000000), wk =   0.0304983
        k(   72) = (   0.2000000   0.2000000   0.0000000), wk =   0.0309278
        k(   73) = (   0.1857100   0.1857100   0.0000000), wk =   0.0313574
        k(   74) = (   0.1714300   0.1714300   0.0000000), wk =   0.0317869
        k(   75) = (   0.1571400   0.1571400   0.0000000), wk =   0.0322165
        k(   76) = (   0.1428600   0.1428600   0.0000000), wk =   0.0326460
        k(   77) = (   0.1285700   0.1285700   0.0000000), wk =   0.0330756
        k(   78) = (   0.1142900   0.1142900   0.0000000), wk =   0.0335052
        k(   79) = (   0.1000000   0.1000000   0.0000000), wk =   0.0339347
        k(   80) = (   0.0857100   0.0857100   0.0000000), wk =   0.0343643
        k(   81) = (   0.0714300   0.0714300   0.0000000), wk =   0.0347938
        k(   82) = (   0.0571400   0.0571400   0.0000000), wk =   0.0352234
        k(   83) = (   0.0428600   0.0428600   0.0000000), wk =   0.0356529
        k(   84) = (   0.0285700   0.0285700   0.0000000), wk =   0.0360825
        k(   85) = (   0.0142900   0.0142900   0.0000000), wk =   0.0365120
        k(   86) = (   0.0000000   0.0000000   0.0000000), wk =   0.0369416
        k(   87) = (   0.0000000   0.0000000   0.0500000), wk =   0.0373711
        k(   88) = (   0.0000000   0.0000000   0.1000000), wk =   0.0378007
        k(   89) = (   0.0000000   0.0000000   0.1500000), wk =   0.0382302
        k(   90) = (   0.0000000   0.0000000   0.2000000), wk =   0.0386598
        k(   91) = (   0.0000000   0.0000000   0.2500000), wk =   0.0390893
        k(   92) = (   0.0000000   0.0000000   0.3000000), wk =   0.0395189
        k(   93) = (   0.0000000   0.0000000   0.3500000), wk =   0.0399485
        k(   94) = (   0.0000000   0.0000000   0.4000000), wk =   0.0403780
        k(   95) = (   0.0000000   0.0000000   0.4500000), wk =   0.0408076
        k(   96) = (   0.0000000   0.0000000   0.5000000), wk =   0.0412371

     Dense  grid:    56707 G-vectors     FFT dimensions: (  45,  45,  75)

     Smooth grid:    23119 G-vectors     FFT dimensions: (  32,  32,  60)

     Dynamical RAM for                 wfc:       0.75 MB

     Dynamical RAM for     wfc (w. buffer):       0.75 MB

     Dynamical RAM for             U proj.:       0.22 MB

     Dynamical RAM for  U proj. (w. buff.):       0.22 MB

     Dynamical RAM for           str. fact:       1.73 MB

     Dynamical RAM for           local pot:       0.00 MB

     Dynamical RAM for          nlocal pot:       1.50 MB

     Dynamical RAM for                qrad:       3.21 MB

     Dynamical RAM for          rho,v,vnew:       6.07 MB

     Dynamical RAM for           G-vectors:       3.42 MB

     Dynamical RAM for          h,s,v(r/c):       0.05 MB

     Dynamical RAM for          <psi|beta>:       0.01 MB

     Dynamical RAM for                 psi:       1.50 MB

     Dynamical RAM for                hpsi:       1.50 MB

     Dynamical RAM for                spsi:       1.50 MB

     Dynamical RAM for      wfcinit/wfcrot:       1.51 MB

     Dynamical RAM for           addusdens:       4.91 MB

     Estimated static dynamical RAM per process >      25.29 MB

     Estimated max dynamical RAM per process >      30.20 MB

     Estimated total dynamical RAM >       1.18 GB

     The potential is recalculated from file :
     ./scratch/bulknno.save/charge-density

 --- in v_hubbard ---
Hubbard energy    0.0000
 -------
     Number of +U iterations with fixed ns =  0
     Starting occupations:
 --- enter write_ns ---
 LDA+U parameters:
U( 1)     =  0.00000000
atom    1   Tr[ns(na)] =   2.90627
    eigenvalues: 
  0.186  0.186  0.342  0.370  0.370
    eigenvectors:
  0.000  0.000  1.000  0.000  0.000
  0.150  0.451  0.000  0.100  0.299
  0.450  0.150  0.000  0.300  0.100
  0.300  0.100  0.000  0.450  0.150
  0.100  0.299  0.000  0.150  0.451
    occupations:
  0.342 -0.000 -0.000 -0.000 -0.000
 -0.000  0.259  0.000  0.000  0.090
 -0.000  0.000  0.259  0.090  0.000
 -0.000  0.000  0.090  0.296  0.000
 -0.000  0.090  0.000  0.000  0.296
N of occupied +U levels =    2.906266
 --- exit write_ns ---
 Atomic wfc used for LDA+U Projector are orthogonalized
     Starting wfcs are random

     Band Structure Calculation
     Davidson diagonalization with overlap

     Computing kpt #:     1  of     3 on this pool
     total cpu time spent up to now is        7.2 secs

     Computing kpt #:     2  of     3 on this pool
     total cpu time spent up to now is        7.8 secs

     Computing kpt #:     3  of     3 on this pool
     total cpu time spent up to now is        8.5 secs

     ethr =  3.85E-09,  avg # of iterations = 27.5

     total cpu time spent up to now is        8.5 secs

     End of band structure calculation

          k = 0.0000 0.0000 0.0000 (  2901 PWs)   bands (ev):

   -49.4812 -25.7715 -25.7395 -25.7395  -9.6984  -8.9528   0.7172   3.2314
     3.2317   3.9133   4.3587   4.3589   8.1349   8.2982   8.2985   9.7164
     9.7170

          k = 0.0200 0.0115 0.0000 (  2913 PWs)   bands (ev):

   -49.4812 -25.7713 -25.7400 -25.7396  -9.6954  -8.9519   0.7219   3.2186
     3.2315   3.9163   4.3386   4.3537   8.1373   8.2969   8.3039   9.7156
     9.7174

          k = 0.0400 0.0231 0.0000 (  2915 PWs)   bands (ev):

   -49.4810 -25.7710 -25.7415 -25.7399  -9.6864  -8.9493   0.7361   3.1819
     3.2308   3.9237   4.2795   4.3381   8.1430   8.2940   8.3199   9.7120
     9.7206

          k = 0.0600 0.0346 0.0000 (  2915 PWs)   bands (ev):

   -49.4808 -25.7704 -25.7440 -25.7405  -9.6716  -8.9449   0.7595   3.1251
     3.2296   3.9317   4.1845   4.3127   8.1479   8.2935   8.3458   9.7078
     9.7263

          k = 0.0800 0.0462 0.0000 (  2913 PWs)   bands (ev):

   -49.4805 -25.7697 -25.7474 -25.7413  -9.6510  -8.9389   0.7921   3.0530
     3.2278   3.9354   4.0592   4.2784   8.1449   8.3019   8.3809   9.7053
     9.7344

          k = 0.1000 0.0577 0.0000 (  2909 PWs)   bands (ev):

   -49.4801 -25.7687 -25.7518 -25.7422  -9.6250  -8.9313   0.8335   2.9696
     3.2255   3.8927   3.9476   4.2363   8.1287   8.3241   8.4241   9.7069
     9.7455

          k = 0.1200 0.0693 0.0000 (  2913 PWs)   bands (ev):

   -49.4797 -25.7676 -25.7569 -25.7434  -9.5938  -8.9222   0.8834   2.8783
     3.2224   3.7255   3.9309   4.1877   8.0999   8.3597   8.4738   9.7152
     9.7596

          k = 0.1400 0.0808 0.0000 (  2907 PWs)   bands (ev):

   -49.4791 -25.7664 -25.7626 -25.7447  -9.5577  -8.9118   0.9413   2.7820
     3.2187   3.5364   3.9107   4.1338   8.0615   8.4059   8.5290   9.7319
     9.7769

          k = 0.1600 0.0924 0.0000 (  2911 PWs)   bands (ev):

   -49.4786 -25.7695 -25.7646 -25.7461  -9.5173  -8.9003   1.0067   2.6826
     3.2141   3.3362   3.8808   4.0761   8.0160   8.4605   8.5884   9.7580
     9.7975

          k = 0.1800 0.1039 0.0000 (  2903 PWs)   bands (ev):

   -49.4779 -25.7764 -25.7631 -25.7477  -9.4729  -8.8877   1.0788   2.5816
     3.1301   3.2088   3.8409   4.0159   7.9653   8.5223   8.6509   9.7941
     9.8214

          k = 0.2000 0.1155 0.0000 (  2899 PWs)   bands (ev):

   -49.4773 -25.7838 -25.7614 -25.7493  -9.4251  -8.8744   1.1568   2.4798
     2.9230   3.2025   3.7915   3.9545   7.9110   8.5903   8.7154   9.8397
     9.8483

          k = 0.2200 0.1270 0.0000 (  2907 PWs)   bands (ev):

   -49.4766 -25.7916 -25.7597 -25.7511  -9.3746  -8.8605   1.2396   2.3768
     2.7203   3.1953   3.7336   3.8930   7.8543   8.6637   8.7811   9.8777
     9.8937

          k = 0.2400 0.1386 0.0000 (  2903 PWs)   bands (ev):

   -49.4759 -25.7995 -25.7579 -25.7528  -9.3220  -8.8463   1.3255   2.2703
     2.5292   3.1873   3.6683   3.8326   7.7965   8.7419   8.8473   9.9091
     9.9549

          k = 0.2600 0.1501 0.0000 (  2899 PWs)   bands (ev):

   -49.4751 -25.8074 -25.7561 -25.7546  -9.2680  -8.8319   1.4121   2.1538
     2.3614   3.1783   3.5970   3.7742   7.7388   8.8240   8.9133   9.9419
    10.0213

          k = 0.2800 0.1617 0.0000 (  2903 PWs)   bands (ev):

   -49.4744 -25.8153 -25.7564 -25.7543  -9.2134  -8.8178   1.4931   2.0241
     2.2283   3.1685   3.5209   3.7186   7.6821   8.9092   8.9785   9.9751
    10.0910

          k = 0.3000 0.1732 0.0000 (  2895 PWs)   bands (ev):

   -49.4737 -25.8230 -25.7581 -25.7525  -9.1590  -8.8041   1.5500   1.9050
     2.1267   3.1580   3.4413   3.6666   7.6274   8.9964   9.0422  10.0083
    10.1618

          k = 0.3200 0.1848 0.0000 (  2889 PWs)   bands (ev):

   -49.4731 -25.8304 -25.7598 -25.7509  -9.1056  -8.7912   1.5324   1.8593
     2.0457   3.1469   3.3594   3.6189   7.5756   9.0843   9.1039  10.0405
    10.2317

          k = 0.3400 0.1963 0.0000 (  2879 PWs)   bands (ev):

   -49.4724 -25.8373 -25.7614 -25.7493  -9.0541  -8.7793   1.4326   1.8970
     1.9839   3.1354   3.2762   3.5759   7.5274   9.1626   9.1716  10.0711
    10.2986

          k = 0.3600 0.2078 0.0000 (  2887 PWs)   bands (ev):

   -49.4718 -25.8437 -25.7628 -25.7478  -9.0053  -8.7688   1.3095   1.8995
     2.0019   3.1239   3.1925   3.5378   7.4832   9.2176   9.2565  10.0994
    10.3605

          k = 0.3800 0.2194 0.0000 (  2892 PWs)   bands (ev):

   -49.4713 -25.8494 -25.7641 -25.7465  -8.9601  -8.7600   1.1903   1.8546
     2.0860   3.1090   3.1125   3.5050   7.4439   9.2681   9.3370  10.1249
    10.4160

          k = 0.4000 0.2309 0.0000 (  2892 PWs)   bands (ev):

   -49.4709 -25.8544 -25.7652 -25.7453  -8.9191  -8.7532   1.0837   1.8131
     2.1771   3.0261   3.1019   3.4775   7.4098   9.3129   9.4109  10.1472
    10.4640

          k = 0.4200 0.2425 0.0000 (  2882 PWs)   bands (ev):

   -49.4705 -25.8586 -25.7662 -25.7443  -8.8830  -8.7486   0.9935   1.7788
     2.2685   2.9439   3.0924   3.4553   7.3813   9.3513   9.4759  10.1659
    10.5037

          k = 0.4400 0.2540 0.0000 (  2898 PWs)   bands (ev):

   -49.4702 -25.8620 -25.7669 -25.7436  -8.8527  -8.7464   0.9215   1.7520
     2.3585   2.8624   3.0845   3.4382   7.3588   9.3822   9.5296  10.1807
    10.5347

          k = 0.4600 0.2656 0.0000 (  2900 PWs)   bands (ev):

   -49.4700 -25.8644 -25.7675 -25.7430  -8.8289  -8.7464   0.8693   1.7329
     2.4463   2.7811   3.0785   3.4261   7.3425   9.4050   9.5698  10.1914
    10.5570

          k = 0.4800 0.2771 0.0000 (  2898 PWs)   bands (ev):

   -49.4698 -25.8659 -25.7678 -25.7427  -8.8130  -8.7478   0.8377   1.7214
     2.5316   2.7000   3.0747   3.4189   7.3326   9.4189   9.5947  10.1979
    10.5704

          k = 0.5000 0.2887 0.0000 (  2902 PWs)   bands (ev):

   -49.4698 -25.8664 -25.7679 -25.7426  -8.8072  -8.7488   0.8271   1.7176
     2.6033   2.6297   3.0735   3.4166   7.3293   9.4235   9.6032  10.2001
    10.5748

          k = 0.5000 0.3118 0.0000 (  2895 PWs)   bands (ev):

   -49.4698 -25.8661 -25.7682 -25.7426  -8.8079  -8.7482   0.8332   1.7195
     2.5723   2.6598   3.0719   3.4040   7.3411   9.4188   9.5984  10.1940
    10.5722

          k = 0.5000 0.3349 0.0000 (  2895 PWs)   bands (ev):

   -49.4698 -25.8652 -25.7691 -25.7426  -8.8096  -8.7466   0.8513   1.7250
     2.5316   2.6975   3.0675   3.3672   7.3757   9.4032   9.5859  10.1762
    10.5650

          k = 0.5000 0.3580 0.0000 (  2892 PWs)   bands (ev):

   -49.4698 -25.8638 -25.7705 -25.7426  -8.8123  -8.7442   0.8813   1.7340
     2.4916   2.7309   3.0612   3.3089   7.4314   9.3739   9.5699  10.1475
    10.5550

          k = 0.5000 0.3811 0.0000 (  2896 PWs)   bands (ev):

   -49.4698 -25.8619 -25.7725 -25.7426  -8.8156  -8.7413   0.9224   1.7460
     2.4538   2.7570   3.0535   3.2342   7.5055   9.3282   9.5551  10.1096
    10.5440

          k = 0.5000 0.4041 0.0000 (  2892 PWs)   bands (ev):

   -49.4698 -25.8596 -25.7748 -25.7426  -8.8191  -8.7383   0.9738   1.7604
     2.4189   2.7726   3.0400   3.1547   7.5952   9.2660   9.5438  10.0652
    10.5335

          k = 0.5000 0.4272 0.0000 (  2891 PWs)   bands (ev):

   -49.4698 -25.8568 -25.7776 -25.7426  -8.8227  -8.7352   1.0344   1.7763
     2.3875   2.7752   2.9923   3.1061   7.6972   9.1896   9.5358  10.0172
    10.5242

          k = 0.5000 0.4503 0.0000 (  2888 PWs)   bands (ev):

   -49.4698 -25.8539 -25.7806 -25.7426  -8.8260  -8.7324   1.1022   1.7927
     2.3599   2.7626   2.9051   3.1015   7.8087   9.1016   9.5301   9.9689
    10.5163

          k = 0.5000 0.4734 0.0000 (  2886 PWs)   bands (ev):

   -49.4698 -25.8508 -25.7837 -25.7426  -8.8291  -8.7298   1.1747   1.8085
     2.3363   2.7254   2.8241   3.1113   7.9270   9.0045   9.5260   9.9234
    10.5100

          k = 0.5000 0.4965 0.0000 (  2884 PWs)   bands (ev):

   -49.4698 -25.8478 -25.7867 -25.7426  -8.8317  -8.7277   1.2479   1.8220
     2.3163   2.6529   2.7789   3.1243   8.0497   8.8998   9.5229   9.8836
    10.5050

          k = 0.5000 0.5196 0.0000 (  2880 PWs)   bands (ev):

   -49.4698 -25.8451 -25.7894 -25.7426  -8.8337  -8.7260   1.3162   1.8322
     2.2997   2.5733   2.7546   3.1365   8.1750   8.7888   9.5206   9.8519
    10.5013

          k = 0.5000 0.5427 0.0000 (  2874 PWs)   bands (ev):

   -49.4698 -25.8431 -25.7915 -25.7426  -8.8350  -8.7249   1.3712   1.8383
     2.2863   2.5112   2.7393   3.1456   8.3009   8.6729   9.5190   9.8298
    10.4989

          k = 0.5000 0.5658 0.0000 (  2870 PWs)   bands (ev):

   -49.4698 -25.8420 -25.7926 -25.7426  -8.8357  -8.7243   1.4027   1.8407
     2.2779   2.4780   2.7314   3.1505   8.4248   8.5542   9.5181   9.8185
    10.4978

          k = 0.5000 0.5889 0.0000 (  2870 PWs)   bands (ev):

   -49.4698 -25.8420 -25.7926 -25.7426  -8.8357  -8.7243   1.4028   1.8407
     2.2779   2.4780   2.7314   3.1505   8.4250   8.5540   9.5181   9.8185
    10.4977

          k = 0.5000 0.6120 0.0000 (  2874 PWs)   bands (ev):

   -49.4698 -25.8431 -25.7915 -25.7426  -8.8351  -8.7249   1.3713   1.8382
     2.2863   2.5112   2.7392   3.1456   8.3012   8.6727   9.5190   9.8298
    10.4989

          k = 0.5000 0.6351 0.0000 (  2880 PWs)   bands (ev):

   -49.4698 -25.8451 -25.7894 -25.7426  -8.8337  -8.7260   1.3164   1.8321
     2.2997   2.5733   2.7545   3.1365   8.1753   8.7887   9.5206   9.8519
    10.5013

          k = 0.5000 0.6582 0.0000 (  2884 PWs)   bands (ev):

   -49.4698 -25.8478 -25.7867 -25.7426  -8.8317  -8.7276   1.2481   1.8219
     2.3164   2.6529   2.7787   3.1243   8.0500   8.8997   9.5229   9.8837
    10.5049

          k = 0.5000 0.6813 0.0000 (  2886 PWs)   bands (ev):

   -49.4698 -25.8508 -25.7837 -25.7426  -8.8291  -8.7298   1.1749   1.8083
     2.3363   2.7253   2.8240   3.1112   7.9272   9.0044   9.5260   9.9234
    10.5098

          k = 0.5000 0.7044 0.0000 (  2888 PWs)   bands (ev):

   -49.4698 -25.8539 -25.7806 -25.7426  -8.8261  -8.7323   1.1024   1.7925
     2.3599   2.7624   2.9051   3.1014   7.8089   9.1016   9.5301   9.9689
    10.5162

          k = 0.5000 0.7275 0.0000 (  2891 PWs)   bands (ev):

   -49.4698 -25.8568 -25.7776 -25.7426  -8.8227  -8.7352   1.0346   1.7761
     2.3875   2.7750   2.9923   3.1059   7.6975   9.1895   9.5358  10.0173
    10.5240

          k = 0.5000 0.7506 0.0000 (  2892 PWs)   bands (ev):

   -49.4698 -25.8596 -25.7748 -25.7426  -8.8192  -8.7382   0.9741   1.7601
     2.4189   2.7724   3.0400   3.1545   7.5955   9.2660   9.5438  10.0653
    10.5333

          k = 0.5000 0.7736 0.0000 (  2896 PWs)   bands (ev):

   -49.4698 -25.8619 -25.7725 -25.7426  -8.8157  -8.7412   0.9226   1.7458
     2.4538   2.7568   3.0533   3.2341   7.5058   9.3282   9.5551  10.1098
    10.5437

          k = 0.5000 0.7967 0.0000 (  2892 PWs)   bands (ev):

   -49.4698 -25.8638 -25.7705 -25.7426  -8.8124  -8.7441   0.8815   1.7338
     2.4917   2.7308   3.0609   3.3088   7.4317   9.3739   9.5699  10.1477
    10.5547

          k = 0.5000 0.8198 0.0000 (  2895 PWs)   bands (ev):

   -49.4698 -25.8652 -25.7691 -25.7426  -8.8098  -8.7465   0.8516   1.7248
     2.5316   2.6973   3.0671   3.3671   7.3760   9.4032   9.5859  10.1764
    10.5647

          k = 0.5000 0.8429 0.0000 (  2895 PWs)   bands (ev):

   -49.4698 -25.8661 -25.7682 -25.7426  -8.8080  -8.7481   0.8334   1.7192
     2.5725   2.6596   3.0715   3.4040   7.3414   9.4188   9.5984  10.1943
    10.5719

          k = 0.5000 0.8660 0.0000 (  2902 PWs)   bands (ev):

   -49.4698 -25.8664 -25.7679 -25.7426  -8.8074  -8.7486   0.8273   1.7173
     2.6039   2.6291   3.0731   3.4165   7.3296   9.4235   9.6032  10.2003
    10.5745

          k = 0.4857 0.8413 0.0000 (  2896 PWs)   bands (ev):

   -49.4698 -25.8660 -25.7686 -25.7425  -8.8056  -8.7480   0.8344   1.7192
     2.6008   2.6312   3.0692   3.3897   7.3519   9.4165   9.5975  10.1893
    10.5712

          k = 0.4714 0.8165 0.0000 (  2892 PWs)   bands (ev):

   -49.4697 -25.8650 -25.7705 -25.7423  -8.8006  -8.7461   0.8554   1.7247
     2.5919   2.6373   3.0574   3.3122   7.4161   9.3961   9.5806  10.1591
    10.5613

          k = 0.4571 0.7918 0.0000 (  2892 PWs)   bands (ev):

   -49.4696 -25.8633 -25.7737 -25.7421  -8.7924  -8.7432   0.8901   1.7334
     2.5789   2.6467   3.0376   3.1912   7.5162   9.3646   9.5525  10.1166
    10.5445

          k = 0.4429 0.7671 0.0000 (  2892 PWs)   bands (ev):

   -49.4694 -25.8610 -25.7779 -25.7418  -8.7817  -8.7392   0.9381   1.7444
     2.5640   2.6589   3.0101   3.0370   7.6443   9.3250   9.5135  10.0698
    10.5204

          k = 0.4286 0.7423 0.0000 (  2884 PWs)   bands (ev):

   -49.4693 -25.8581 -25.7832 -25.7414  -8.7690  -8.7344   0.9989   1.7568
     2.5500   2.6724   2.8600   2.9753   7.7926   9.2798   9.4642  10.0262
    10.4886

          k = 0.4143 0.7176 0.0000 (  2876 PWs)   bands (ev):

   -49.4691 -25.8546 -25.7892 -25.7409  -8.7551  -8.7291   1.0715   1.7691
     2.5403   2.6703   2.6861   2.9342   7.9542   9.2307   9.4053   9.9919
    10.4491

          k = 0.4000 0.6928 0.0000 (  2868 PWs)   bands (ev):

   -49.4689 -25.8506 -25.7957 -25.7405  -8.7409  -8.7235   1.1552   1.7800
     2.4766   2.5378   2.6980   2.8883   8.1239   9.1783   9.3377   9.9716
    10.4018

          k = 0.3857 0.6681 0.0000 (  2868 PWs)   bands (ev):

   -49.4687 -25.8462 -25.8026 -25.7400  -8.7275  -8.7179   1.2483   1.7883
     2.2868   2.5453   2.7064   2.8397   8.2976   9.1223   9.2628   9.9686
    10.3475

          k = 0.3714 0.6433 0.0000 (  2862 PWs)   bands (ev):

   -49.4686 -25.8413 -25.8096 -25.7397  -8.7159  -8.7127   1.3488   1.7935
     2.1080   2.5647   2.7093   2.7908   8.4715   9.0626   9.1823   9.9845
    10.2873

          k = 0.3571 0.6186 0.0000 (  2864 PWs)   bands (ev):

   -49.4684 -25.8361 -25.8165 -25.7394  -8.7082  -8.7074   1.4524   1.7955
     1.9485   2.5968   2.7046   2.7445   8.6425   8.9992   9.0984  10.0190
    10.2227

          k = 0.3429 0.5939 0.0000 (  2860 PWs)   bands (ev):

   -49.4684 -25.8307 -25.8229 -25.7392  -8.7047  -8.7031   1.5438   1.7954
     1.8263   2.6414   2.6905   2.7038   8.8044   8.9330   9.0158  10.0701
    10.1560

          k = 0.3286 0.5691 0.0000 (  2860 PWs)   bands (ev):

   -49.4683 -25.8288 -25.8250 -25.7392  -8.7041  -8.7026   1.5632   1.7943
     1.8033   2.6653   2.6703   2.6986   8.8650   8.8926   8.9976  10.0896
    10.1343

          k = 0.3143 0.5444 0.0000 (  2870 PWs)   bands (ev):

   -49.4684 -25.8338 -25.8191 -25.7393  -8.7113  -8.7020   1.5012   1.7940
     1.8903   2.6280   2.6488   2.7648   8.7964   8.8224   9.1259  10.0260
    10.2073

          k = 0.3000 0.5196 0.0000 (  2876 PWs)   bands (ev):

   -49.4686 -25.8378 -25.8132 -25.7397  -8.7256  -8.7033   1.4366   1.7958
     2.0084   2.5781   2.6399   2.8402   8.7282   8.7390   9.2528   9.9673
    10.2840

          k = 0.2857 0.4949 0.0000 (  2872 PWs)   bands (ev):

   -49.4688 -25.8406 -25.8073 -25.7402  -8.7474  -8.7066   1.3935   1.8014
     2.1326   2.5164   2.6458   2.9228   8.6571   8.6618   9.3605   9.9156
    10.3588

          k = 0.2714 0.4701 0.0000 (  2882 PWs)   bands (ev):

   -49.4691 -25.8421 -25.8014 -25.7410  -8.7770  -8.7120   1.3774   1.8121
     2.2516   2.4483   2.6674   3.0111   8.5788   8.5978   9.4436   9.8714
    10.4255

          k = 0.2571 0.4454 0.0000 (  2868 PWs)   bands (ev):

   -49.4695 -25.8423 -25.7956 -25.7420  -8.8143  -8.7196   1.3899   1.8295
     2.3068   2.4304   2.7054   3.1037   8.5055   8.5373   9.5001   9.8339
    10.4783

          k = 0.2429 0.4206 0.0000 (  2868 PWs)   bands (ev):

   -49.4700 -25.8410 -25.7899 -25.7433  -8.8591  -8.7293   1.4309   1.8546
     2.2330   2.5275   2.7595   3.1990   8.4381   8.4810   9.5293   9.8011
    10.5115

          k = 0.2286 0.3959 0.0000 (  2878 PWs)   bands (ev):

   -49.4706 -25.8384 -25.7845 -25.7448  -8.9107  -8.7411   1.4986   1.8886
     2.1334   2.6376   2.8292   3.2958   8.3775   8.4295   9.5321   9.7713
    10.5211

          k = 0.2143 0.3712 0.0000 (  2892 PWs)   bands (ev):

   -49.4713 -25.8344 -25.7792 -25.7464  -8.9682  -8.7547   1.5872   1.9324
     2.0318   2.7422   2.9133   3.3925   8.3247   8.3835   9.5079   9.7459
    10.5047

          k = 0.2000 0.3464 0.0000 (  2892 PWs)   bands (ev):

   -49.4721 -25.8292 -25.7743 -25.7483  -9.0304  -8.7699   1.6730   1.9545
     1.9865   2.8380   3.0104   3.4878   8.2801   8.3438   9.4556   9.7282
    10.4626

          k = 0.1857 0.3217 0.0000 (  2882 PWs)   bands (ev):

   -49.4729 -25.8229 -25.7696 -25.7503  -9.0962  -8.7864   1.6746   1.9840
     2.0513   2.9234   3.1184   3.5802   8.2439   8.3106   9.3782   9.7189
    10.3975

          k = 0.1714 0.2969 0.0000 (  2895 PWs)   bands (ev):

   -49.4738 -25.8156 -25.7653 -25.7523  -9.1642  -8.8038   1.5868   2.1252
     2.1265   2.9976   3.2348   3.6684   8.2160   8.2842   9.2820   9.7156
    10.3139

          k = 0.1571 0.2722 0.0000 (  2895 PWs)   bands (ev):

   -49.4747 -25.8076 -25.7616 -25.7543  -9.2329  -8.8219   1.4765   2.2120
     2.3108   3.0608   3.3567   3.7513   8.1958   8.2647   9.1737   9.7162
    10.2182

          k = 0.1429 0.2474 0.0000 (  2895 PWs)   bands (ev):

   -49.4756 -25.7991 -25.7592 -25.7552  -9.3010  -8.8401   1.3634   2.3067
     2.5192   3.1136   3.4802   3.8283   8.1823   8.2519   9.0588   9.7192
    10.1171

          k = 0.1286 0.2227 0.0000 (  2887 PWs)   bands (ev):

   -49.4765 -25.7903 -25.7600 -25.7532  -9.3671  -8.8582   1.2534   2.4098
     2.7416   3.1581   3.6008   3.8994   8.1741   8.2451   8.9421   9.7231
    10.0175

          k = 0.1143 0.1980 0.0000 (  2891 PWs)   bands (ev):

   -49.4773 -25.7815 -25.7619 -25.7505  -9.4299  -8.8756   1.1496   2.5196
     2.9655   3.2016   3.7120   3.9660   8.1697   8.2436   8.8272   9.7271
     9.9259

          k = 0.1000 0.1732 0.0000 (  2903 PWs)   bands (ev):

   -49.4781 -25.7730 -25.7638 -25.7480  -9.4883  -8.8920   1.0540   2.6342
     3.1385   3.2925   3.8059   4.0315   8.1676   8.2465   8.7172   9.7303
     9.8475

          k = 0.0857 0.1485 0.0000 (  2905 PWs)   bands (ev):

   -49.4789 -25.7657 -25.7649 -25.7457  -9.5411  -8.9071   0.9682   2.7509
     3.1931   3.4929   3.8745   4.0995   8.1664   8.2527   8.6148   9.7323
     9.7862

          k = 0.0714 0.1237 0.0000 (  2921 PWs)   bands (ev):

   -49.4796 -25.7674 -25.7577 -25.7438  -9.5874  -8.9204   0.8937   2.8664
     3.2121   3.7135   3.9157   4.1687   8.1646   8.2613   8.5225   9.7324
     9.7437

          k = 0.0571 0.0990 0.0000 (  2909 PWs)   bands (ev):

   -49.4801 -25.7688 -25.7514 -25.7423  -9.6265  -8.9317   0.8312   2.9767
     3.2219   3.9205   3.9340   4.2332   8.1613   8.2714   8.4428   9.7197
     9.7306

          k = 0.0429 0.0742 0.0000 (  2911 PWs)   bands (ev):

   -49.4806 -25.7699 -25.7463 -25.7411  -9.6575  -8.9408   0.7818   3.0760
     3.2272   3.9357   4.0996   4.2870   8.1552   8.2814   8.3787   9.7105
     9.7267

          k = 0.0286 0.0495 0.0000 (  2917 PWs)   bands (ev):

   -49.4809 -25.7708 -25.7426 -25.7402  -9.6801  -8.9474   0.7461   3.1574
     3.2300   3.9277   4.2391   4.3267   8.1467   8.2901   8.3331   9.7110
     9.7220

          k = 0.0143 0.0248 0.0000 (  2909 PWs)   bands (ev):

   -49.4811 -25.7713 -25.7403 -25.7397  -9.6938  -8.9515   0.7244   3.2120
     3.2313   3.9177   4.3281   4.3508   8.1384   8.2961   8.3068   9.7148
     9.7181

          k = 0.0000 0.0000 0.0000 (  2901 PWs)   bands (ev):

   -49.4812 -25.7715 -25.7395 -25.7395  -9.6984  -8.9528   0.7172   3.2314
     3.2317   3.9133   4.3587   4.3589   8.1349   8.2982   8.2985   9.7164
     9.7170

          k = 0.0000 0.0000 0.0281 (  2907 PWs)   bands (ev):

   -49.4812 -25.7715 -25.7395 -25.7395  -9.6952  -8.9569   0.7307   3.2326
     3.2329   3.8869   4.3567   4.3570   8.1426   8.2979   8.2982   9.7189
     9.7196

          k = 0.0000 0.0000 0.0562 (  2925 PWs)   bands (ev):

   -49.4812 -25.7715 -25.7395 -25.7395  -9.6859  -8.9690   0.7711   3.2358
     3.2361   3.8099   4.3511   4.3513   8.1644   8.2971   8.2974   9.7262
     9.7268

          k = 0.0000 0.0000 0.0843 (  2913 PWs)   bands (ev):

   -49.4812 -25.7715 -25.7395 -25.7395  -9.6707  -8.9883   0.8371   3.2410
     3.2413   3.6890   4.3423   4.3425   8.1960   8.2958   8.2961   9.7378
     9.7384

          k = 0.0000 0.0000 0.1125 (  2919 PWs)   bands (ev):

   -49.4812 -25.7715 -25.7395 -25.7395  -9.6504  -9.0140   0.9270   3.2477
     3.2480   3.5330   4.3311   4.3313   8.2317   8.2942   8.2945   9.7522
     9.7529

          k = 0.0000 0.0000 0.1406 (  2913 PWs)   bands (ev):

   -49.4812 -25.7715 -25.7395 -25.7395  -9.6258  -9.0445   1.0378   3.2552
     3.2555   3.3526   4.3185   4.3187   8.2670   8.2923   8.2926   9.7685
     9.7692

          k = 0.0000 0.0000 0.1687 (  2913 PWs)   bands (ev):

   -49.4812 -25.7715 -25.7395 -25.7395  -9.5984  -9.0778   1.1650   3.1593
     3.2628   3.2632   4.3058   4.3060   8.2905   8.2908   8.2983   9.7848
     9.7854

          k = 0.0000 0.0000 0.1968 (  2913 PWs)   bands (ev):

   -49.4812 -25.7715 -25.7395 -25.7395  -9.5703  -9.1111   1.3014   2.9659
     3.2699   3.2703   4.2942   4.2944   8.2889   8.2892   8.3235   9.7995
     9.8002

          k = 0.0000 0.0000 0.2249 (  2890 PWs)   bands (ev):

   -49.4812 -25.7715 -25.7395 -25.7395  -9.5448  -9.1407   1.4339   2.7897
     3.2756   3.2760   4.2850   4.2851   8.2877   8.2880   8.3417   9.8115
     9.8121

          k = 0.0000 0.0000 0.2530 (  2878 PWs)   bands (ev):

   -49.4812 -25.7715 -25.7395 -25.7395  -9.5264  -9.1619   1.5392   2.6572
     3.2794   3.2798   4.2790   4.2791   8.2870   8.2873   8.3527   9.8191
     9.8197

          k = 0.0000 0.0000 0.2811 (  2872 PWs)   bands (ev):

   -49.4812 -25.7715 -25.7395 -25.7395  -9.5195  -9.1697   1.5814   2.6058
     3.2807   3.2810   4.2769   4.2770   8.2867   8.2870   8.3566   9.8216
     9.8222

     Writing output data file ./scratch/bulknno.save/

     init_run     :      1.19s CPU      1.29s WALL (       1 calls)
     electrons    :      1.94s CPU      1.99s WALL (       1 calls)

     Called by init_run:
     wfcinit      :      0.02s CPU      0.06s WALL (       1 calls)
     wfcinit:wfcr :      0.06s CPU      0.06s WALL (       3 calls)
     potinit      :      0.17s CPU      0.20s WALL (       1 calls)
     hinit0       :      0.95s CPU      0.96s WALL (       1 calls)

     Called by electrons:
     c_bands      :      1.93s CPU      1.98s WALL (       1 calls)
     v_of_rho     :      0.12s CPU      0.13s WALL (       1 calls)
     v_h          :      0.01s CPU      0.01s WALL (       1 calls)
     v_xc         :      0.12s CPU      0.13s WALL (       1 calls)
     newd         :      0.02s CPU      0.03s WALL (       1 calls)

     Called by c_bands:
     init_us_2    :      0.01s CPU      0.01s WALL (       6 calls)
     cegterg      :      1.83s CPU      1.85s WALL (       6 calls)

     Called by sum_band:

     Called by *egterg:
     cdiaghg      :      0.07s CPU      0.07s WALL (     114 calls)
     cegterg:over :      0.12s CPU      0.12s WALL (     111 calls)
     cegterg:upda :      0.07s CPU      0.07s WALL (     111 calls)
     cegterg:last :      0.19s CPU      0.19s WALL (      79 calls)
     h_psi        :      1.33s CPU      1.35s WALL (     120 calls)
     s_psi        :      0.06s CPU      0.06s WALL (     123 calls)
     g_psi        :      0.02s CPU      0.02s WALL (     111 calls)

     Called by h_psi:
     h_psi:calbec :      0.08s CPU      0.08s WALL (     120 calls)
     vloc_psi     :      1.15s CPU      1.16s WALL (     120 calls)
     add_vuspsi   :      0.06s CPU      0.06s WALL (     120 calls)
     vhpsi        :      0.03s CPU      0.03s WALL (     120 calls)

     General routines
     calbec       :      0.10s CPU      0.10s WALL (     243 calls)
     fft          :      0.05s CPU      0.05s WALL (      13 calls)
     ffts         :      0.00s CPU      0.00s WALL (       1 calls)
     fftw         :      0.98s CPU      0.99s WALL (    2622 calls)
     interpolate  :      0.00s CPU      0.01s WALL (       1 calls)
     davcio       :      0.00s CPU      0.02s WALL (      12 calls)

     Parallel routines

     Hubbard U routines
     vhpsi        :      0.03s CPU      0.03s WALL (     120 calls)

     PWSCF        :      7.95s CPU      9.53s WALL


   This run was terminated on:  23:49:44  21Feb2021            

=------------------------------------------------------------------------------=
   JOB DONE.
=------------------------------------------------------------------------------=
