 written on 21Feb2021 at 23:31:33 
           5
        1199
    4    2    2    2    2    2    2    2    2    2    4    2    1    1    1
    1    1    1    1    1    1    2    4    2    2    2    2    2    2    2
    2    2    4    4    2    2    2    2    2    2    2    2    2    4    2
    1    1    1    1    1    1    1    1    1    2    2    1    1    1    1
    1    1    1    1    1    2    2    1    1    1    1    1    1    1    1
    1    2    2    1    1    1    1    1    1    1    1    1    2    4    2
    2    2    2    2    2    2    2    2    4    4    2    2    2    2    2
    2    2    2    2    4    2    1    1    1    1    1    1    1    1    1
    2    2    1    1    1    1    1    1    1    1    1    2    2    1    1
    1    1    1    1    1    1    1    2    2    1    1    1    1    1    1
    1    1    1    2    2    1    1    1    1    1    1    1    1    1    2
    2    1    1    1    1    1    1    1    1    1    2    2    1    1    1
    1    1    1    1    1    1    2    4    2    2    2    2    2    2    2
    2    2    4    2    1    1    1    1    1    1    1    1    1    2    2
    1    1    1    1    1    1    1    1    1    2    2    1    1    1    1
    1    1    1    1    1    2    2    1    1    1    1    1    1    1    1
    1    2    2    1    1    1    1    1    1    1    1    1    2    2    1
    1    1    1    1    1    1    1    1    2    2    1    1    1    1    1
    1    1    1    1    2    2    1    1    1    1    1    1    1    1    1
    2    2    1    1    1    1    1    1    1    1    1    2    2    1    1
    1    1    1    1    1    1    1    2    4    2    2    2    2    2    2
    2    2    2    4    2    1    1    1    1    1    1    1    1    1    2
    2    1    1    1    1    1    1    1    1    1    2    2    1    1    1
    1    1    1    1    1    1    2    2    1    1    1    1    1    1    1
    1    1    2    2    1    1    1    1    1    1    1    1    1    2    2
    1    1    1    1    1    1    1    1    1    2    2    1    1    1    1
    1    1    1    1    1    2    2    1    1    1    1    1    1    1    1
    1    2    2    1    1    1    1    1    1    1    1    1    2    4    2
    2    2    2    2    2    2    2    2    4    2    1    1    1    1    1
    1    1    1    1    2    2    1    1    1    1    1    1    1    1    1
    2    2    1    1    1    1    1    1    1    1    1    2    2    1    1
    1    1    1    1    1    1    1    2    2    1    1    1    1    1    1
    1    1    1    2    2    1    1    1    1    1    1    1    1    1    2
    2    1    1    1    1    1    1    1    1    1    2    2    1    1    1
    1    1    1    1    1    1    2    2    1    1    1    1    1    1    1
    1    1    2    2    1    1    1    1    1    1    1    1    1    2    4
    2    2    2    2    2    2    2    2    2    4    2    1    1    1    1
    1    1    1    1    1    2    2    1    1    1    1    1    1    1    1
    1    2    2    1    1    1    1    1    1    1    1    1    2    2    1
    1    1    1    1    1    1    1    1    2    2    1    1    1    1    1
    1    1    1    1    2    2    1    1    1    1    1    1    1    1    1
    2    2    1    1    1    1    1    1    1    1    1    2    2    1    1
    1    1    1    1    1    1    1    2    2    1    1    1    1    1    1
    1    1    1    2    4    2    2    2    2    2    2    2    2    2    4
    2    1    1    1    1    1    1    1    1    1    2    2    1    1    1
    1    1    1    1    1    1    2    2    1    1    1    1    1    1    1
    1    1    2    2    1    1    1    1    1    1    1    1    1    2    2
    1    1    1    1    1    1    1    1    1    2    2    1    1    1    1
    1    1    1    1    1    2    2    1    1    1    1    1    1    1    1
    1    2    2    1    1    1    1    1    1    1    1    1    2    2    1
    1    1    1    1    1    1    1    1    2    2    1    1    1    1    1
    1    1    1    1    2    4    2    2    2    2    2    2    2    2    2
    4    2    1    1    1    1    1    1    1    1    1    2    2    1    1
    1    1    1    1    1    1    1    2    2    1    1    1    1    1    1
    1    1    1    2    2    1    1    1    1    1    1    1    1    1    2
    2    1    1    1    1    1    1    1    1    1    2    2    1    1    1
    1    1    1    1    1    1    2    2    1    1    1    1    1    1    1
    1    1    2    2    1    1    1    1    1    1    1    1    1    2    2
    1    1    1    1    1    1    1    1    1    2    4    2    2    2    2
    2    2    2    2    2    4    2    1    1    1    1    1    1    1    1
    1    2    2    1    1    1    1    1    1    1    1    1    2    2    1
    1    1    1    1    1    1    1    1    2    2    1    1    1    1    1
    1    1    1    1    2    2    1    1    1    1    1    1    1    1    1
    2    2    1    1    1    1    1    1    1    1    1    2    2    1    1
    1    1    1    1    1    1    1    2    2    1    1    1    1    1    1
    1    1    1    2    2    1    1    1    1    1    1    1    1    1    2
    2    1    1    1    1    1    1    1    1    1    2    4    2    2    2
    2    2    2    2    2    2    4    2    1    1    1    1    1    1    1
    1    1    2    2    1    1    1    1    1    1    1    1    1    2    2
    1    1    1    1    1    1    1    1    1    2    2    1    1    1    1
    1    1    1    1    1    2    2    1    1    1    1    1    1    1    1
    1    2    2    1    1    1    1    1    1    1    1    1    2    2    1
    1    1    1    1    1    1    1    1    2    4    2    2    2    2    2
    2    2    2    2    4    4    2    2    2    2    2    2    2    2    2
    4    2    1    1    1    1    1    1    1    1    1    2    2    1    1
    1    1    1    1    1    1    1    2    2    1    1    1    1    1    1
    1    1    1    2    2    1    1    1    1    1    1    1    1    1    2
    4    2    2    2    2    2    2    2    2    2    4    4    2    2    2
    2    2    2    2    2    2    4    2    1    1    1    1    1    1    1
    1    1    2    4    2    2    2    2    2    2    2    2    2    4
   -6   -4   -5    1    1   -0.000001    0.000000
   -6   -4   -5    2    1    0.000000    0.000000
   -6   -4   -5    3    1   -0.000000   -0.000000
   -6   -4   -5    4    1    0.000001   -0.000000
   -6   -4   -5    5    1    0.000001   -0.000000
   -6   -4   -5    1    2    0.000000   -0.000000
   -6   -4   -5    2    2   -0.000001   -0.000000
   -6   -4   -5    3    2   -0.000000    0.000000
   -6   -4   -5    4    2    0.000000   -0.000000
   -6   -4   -5    5    2    0.000000    0.000000
   -6   -4   -5    1    3   -0.000000    0.000000
   -6   -4   -5    2    3   -0.000000   -0.000000
   -6   -4   -5    3    3    0.000000   -0.000000
   -6   -4   -5    4    3   -0.000000   -0.000000
   -6   -4   -5    5    3    0.000000   -0.000000
   -6   -4   -5    1    4    0.000001    0.000000
   -6   -4   -5    2    4    0.000000    0.000000
   -6   -4   -5    3    4    0.000000    0.000000
   -6   -4   -5    4    4    0.000000    0.000000
   -6   -4   -5    5    4   -0.000000    0.000000
   -6   -4   -5    1    5    0.000001    0.000000
   -6   -4   -5    2    5    0.000000   -0.000000
   -6   -4   -5    3    5    0.000000    0.000000
   -6   -4   -5    4    5   -0.000000   -0.000000
   -6   -4   -5    5    5    0.000000    0.000000
   -6   -4   -4    1    1   -0.000000   -0.000000
   -6   -4   -4    2    1   -0.000000    0.000000
   -6   -4   -4    3    1    0.000000   -0.000000
   -6   -4   -4    4    1    0.000000    0.000000
   -6   -4   -4    5    1   -0.000000   -0.000000
   -6   -4   -4    1    2   -0.000000   -0.000000
   -6   -4   -4    2    2   -0.000000   -0.000000
   -6   -4   -4    3    2    0.000000   -0.000000
   -6   -4   -4    4    2    0.000000    0.000000
   -6   -4   -4    5    2   -0.000001   -0.000000
   -6   -4   -4    1    3    0.000000    0.000000
   -6   -4   -4    2    3    0.000000    0.000000
   -6   -4   -4    3    3    0.000000    0.000000
   -6   -4   -4    4    3    0.000000    0.000000
   -6   -4   -4    5    3    0.000000    0.000000
   -6   -4   -4    1    4    0.000000   -0.000000
   -6   -4   -4    2    4    0.000000   -0.000000
   -6   -4   -4    3    4    0.000000   -0.000000
   -6   -4   -4    4    4    0.000000   -0.000000
   -6   -4   -4    5    4    0.000000   -0.000000
   -6   -4   -4    1    5   -0.000000    0.000000
   -6   -4   -4    2    5   -0.000001    0.000000
   -6   -4   -4    3    5    0.000000   -0.000000
   -6   -4   -4    4    5    0.000000    0.000000
   -6   -4   -4    5    5   -0.000001    0.000000
   -6   -4   -3    1    1    0.000002   -0.000000
   -6   -4   -3    2    1    0.000001   -0.000000
   -6   -4   -3    3    1   -0.000000   -0.000000
   -6   -4   -3    4    1   -0.000000    0.000000
   -6   -4   -3    5    1    0.000001   -0.000000
   -6   -4   -3    1    2    0.000001    0.000000
   -6   -4   -3    2    2    0.000000    0.000000
   -6   -4   -3    3    2    0.000001   -0.000000
   -6   -4   -3    4    2    0.000000   -0.000000
   -6   -4   -3    5    2    0.000001    0.000000
   -6   -4   -3    1    3   -0.000000    0.000000
   -6   -4   -3    2    3    0.000001    0.000000
   -6   -4   -3    3    3   -0.000001   -0.000000
   -6   -4   -3    4    3    0.000000    0.000000
   -6   -4   -3    5    3   -0.000001    0.000000
   -6   -4   -3    1    4   -0.000001   -0.000000
   -6   -4   -3    2    4    0.000000    0.000000
   -6   -4   -3    3    4    0.000000   -0.000000
   -6   -4   -3    4    4   -0.000002    0.000000
   -6   -4   -3    5    4   -0.000000    0.000000
   -6   -4   -3    1    5    0.000001    0.000000
   -6   -4   -3    2    5    0.000001   -0.000000
   -6   -4   -3    3    5   -0.000001    0.000000
   -6   -4   -3    4    5   -0.000000   -0.000000
   -6   -4   -3    5    5    0.000003    0.000000
   -6   -4   -2    1    1    0.000002    0.000000
   -6   -4   -2    2    1    0.000000   -0.000000
   -6   -4   -2    3    1   -0.000002    0.000000
   -6   -4   -2    4    1    0.000000   -0.000000
   -6   -4   -2    5    1    0.000001    0.000000
   -6   -4   -2    1    2    0.000000    0.000000
   -6   -4   -2    2    2    0.000000   -0.000000
   -6   -4   -2    3    2    0.000001    0.000000
   -6   -4   -2    4    2    0.000000    0.000000
   -6   -4   -2    5    2   -0.000000    0.000000
   -6   -4   -2    1    3   -0.000002   -0.000000
   -6   -4   -2    2    3    0.000000   -0.000000
   -6   -4   -2    3    3   -0.000001   -0.000000
   -6   -4   -2    4    3   -0.000000    0.000000
   -6   -4   -2    5    3   -0.000001    0.000000
   -6   -4   -2    1    4   -0.000000    0.000000
   -6   -4   -2    2    4    0.000000   -0.000000
   -6   -4   -2    3    4   -0.000000   -0.000000
   -6   -4   -2    4    4   -0.000002    0.000000
   -6   -4   -2    5    4   -0.000002    0.000000
   -6   -4   -2    1    5    0.000001   -0.000000
   -6   -4   -2    2    5   -0.000000   -0.000000
   -6   -4   -2    3    5   -0.000001   -0.000000
   -6   -4   -2    4    5   -0.000002   -0.000000
   -6   -4   -2    5    5    0.000003    0.000000
   -6   -4   -1    1    1    0.000060   -0.000000
   -6   -4   -1    2    1   -0.000001    0.000000
   -6   -4   -1    3    1   -0.000001   -0.000000
   -6   -4   -1    4    1   -0.000004    0.000000
   -6   -4   -1    5    1   -0.000032    0.000000
   -6   -4   -1    1    2   -0.000001   -0.000000
   -6   -4   -1    2    2   -0.000020    0.000000
   -6   -4   -1    3    2    0.000000    0.000000
   -6   -4   -1    4    2    0.000002    0.000000
   -6   -4   -1    5    2   -0.000008    0.000000
   -6   -4   -1    1    3   -0.000001    0.000000
   -6   -4   -1    2    3    0.000000   -0.000000
   -6   -4   -1    3    3    0.000001   -0.000000
   -6   -4   -1    4    3    0.000012    0.000000
   -6   -4   -1    5    3   -0.000002    0.000000
   -6   -4   -1    1    4   -0.000004   -0.000000
   -6   -4   -1    2    4    0.000002   -0.000000
   -6   -4   -1    3    4    0.000012   -0.000000
   -6   -4   -1    4    4    0.000000   -0.000000
   -6   -4   -1    5    4    0.000005    0.000000
   -6   -4   -1    1    5   -0.000032   -0.000000
   -6   -4   -1    2    5   -0.000008   -0.000000
   -6   -4   -1    3    5   -0.000002   -0.000000
   -6   -4   -1    4    5    0.000005   -0.000000
   -6   -4   -1    5    5    0.000024    0.000000
   -6   -4    0    1    1    0.000096   -0.000000
   -6   -4    0    2    1    0.000016   -0.000000
   -6   -4    0    3    1    0.000053   -0.000000
   -6   -4    0    4    1   -0.000029    0.000000
   -6   -4    0    5    1   -0.000073   -0.000000
   -6   -4    0    1    2    0.000016    0.000000
   -6   -4    0    2    2    0.000059    0.000000
   -6   -4    0    3    2    0.000002   -0.000000
   -6   -4    0    4    2   -0.000002   -0.000000
   -6   -4    0    5    2    0.000044    0.000000
   -6   -4    0    1    3    0.000053    0.000000
   -6   -4    0    2    3    0.000002    0.000000
   -6   -4    0    3    3    0.000012    0.000000
   -6   -4    0    4    3   -0.000016    0.000000
   -6   -4    0    5    3    0.000022   -0.000000
   -6   -4    0    1    4   -0.000029   -0.000000
   -6   -4    0    2    4   -0.000002   -0.000000
   -6   -4    0    3    4   -0.000016   -0.000000
   -6   -4    0    4    4    0.000029    0.000000
   -6   -4    0    5    4    0.000044    0.000000
   -6   -4    0    1    5   -0.000073    0.000000
   -6   -4    0    2    5    0.000044   -0.000000
   -6   -4    0    3    5    0.000022    0.000000
   -6   -4    0    4    5    0.000044   -0.000000
   -6   -4    0    5    5    0.000004    0.000000
   -6   -4    1    1    1   -0.000051   -0.000000
   -6   -4    1    2    1   -0.000007   -0.000000
   -6   -4    1    3    1   -0.000020   -0.000000
   -6   -4    1    4    1    0.000024   -0.000000
   -6   -4    1    5    1    0.000017   -0.000000
   -6   -4    1    1    2   -0.000007    0.000000
   -6   -4    1    2    2   -0.000029   -0.000000
   -6   -4    1    3    2   -0.000004    0.000000
   -6   -4    1    4    2   -0.000000    0.000000
   -6   -4    1    5    2   -0.000021    0.000000
   -6   -4    1    1    3   -0.000020    0.000000
   -6   -4    1    2    3   -0.000004   -0.000000
   -6   -4    1    3    3   -0.000002    0.000000
   -6   -4    1    4    3    0.000009   -0.000000
   -6   -4    1    5    3    0.000007    0.000000
   -6   -4    1    1    4    0.000024    0.000000
   -6   -4    1    2    4   -0.000000   -0.000000
   -6   -4    1    3    4    0.000009    0.000000
   -6   -4    1    4    4   -0.000007    0.000000
   -6   -4    1    5    4   -0.000013   -0.000000
   -6   -4    1    1    5    0.000017    0.000000
   -6   -4    1    2    5   -0.000021   -0.000000
   -6   -4    1    3    5    0.000007   -0.000000
   -6   -4    1    4    5   -0.000013    0.000000
   -6   -4    1    5    5   -0.000027    0.000000
   -6   -4    2    1    1    0.000045   -0.000000
   -6   -4    2    2    1    0.000007    0.000000
   -6   -4    2    3    1    0.000009   -0.000000
   -6   -4    2    4    1   -0.000011   -0.000000
   -6   -4    2    5    1   -0.000021   -0.000000
   -6   -4    2    1    2    0.000006   -0.000000
   -6   -4    2    2    2    0.000008    0.000000
   -6   -4    2    3    2    0.000002   -0.000000
   -6   -4    2    4    2    0.000002    0.000000
   -6   -4    2    5    2    0.000012   -0.000000
   -6   -4    2    1    3    0.000009    0.000000
   -6   -4    2    2    3    0.000002    0.000000
   -6   -4    2    3    3    0.000000    0.000000
   -6   -4    2    4    3   -0.000002    0.000000
   -6   -4    2    5    3   -0.000000    0.000000
   -6   -4    2    1    4   -0.000011    0.000000
   -6   -4    2    2    4    0.000002   -0.000000
   -6   -4    2    3    4   -0.000002   -0.000000
   -6   -4    2    4    4    0.000002   -0.000000
   -6   -4    2    5    4    0.000008   -0.000000
   -6   -4    2    1    5   -0.000021    0.000000
   -6   -4    2    2    5    0.000012    0.000000
   -6   -4    2    3    5   -0.000000   -0.000000
   -6   -4    2    4    5    0.000008    0.000000
   -6   -4    2    5    5    0.000020   -0.000000
   -6   -4    3    1    1   -0.000018    0.000000
   -6   -4    3    2    1   -0.000001    0.000000
   -6   -4    3    3    1   -0.000000   -0.000000
   -6   -4    3    4    1    0.000002    0.000000
   -6   -4    3    5    1    0.000010   -0.000000
   -6   -4    3    1    2   -0.000001   -0.000000
   -6   -4    3    2    2    0.000001    0.000000
   -6   -4    3    3    2   -0.000000   -0.000000
   -6   -4    3    4    2   -0.000000    0.000000
   -6   -4    3    5    2   -0.000001    0.000000
   -6   -4    3    1    3   -0.000000    0.000000
   -6   -4    3    2    3   -0.000000    0.000000
   -6   -4    3    3    3    0.000001    0.000000
   -6   -4    3    4    3    0.000000   -0.000000
   -6   -4    3    5    3   -0.000000   -0.000000
   -6   -4    3    1    4    0.000002   -0.000000
   -6   -4    3    2    4   -0.000000   -0.000000
   -6   -4    3    3    4    0.000000    0.000000
   -6   -4    3    4    4    0.000001   -0.000000
   -6   -4    3    5    4   -0.000002   -0.000000
   -6   -4    3    1    5    0.000010    0.000000
   -6   -4    3    2    5   -0.000001   -0.000000
   -6   -4    3    3    5   -0.000000    0.000000
   -6   -4    3    4    5   -0.000002    0.000000
   -6   -4    3    5    5   -0.000007    0.000000
   -6   -4    4    1    1   -0.000001    0.000000
   -6   -4    4    2    1   -0.000000    0.000000
   -6   -4    4    3    1   -0.000001    0.000000
   -6   -4    4    4    1    0.000001    0.000000
   -6   -4    4    5    1   -0.000000   -0.000000
   -6   -4    4    1    2   -0.000000   -0.000000
   -6   -4    4    2    2   -0.000000   -0.000000
   -6   -4    4    3    2   -0.000000    0.000000
   -6   -4    4    4    2   -0.000000    0.000000
   -6   -4    4    5    2   -0.000000    0.000000
   -6   -4    4    1    3   -0.000001   -0.000000
   -6   -4    4    2    3   -0.000000   -0.000000
   -6   -4    4    3    3   -0.000001    0.000000
   -6   -4    4    4    3   -0.000000    0.000000
   -6   -4    4    5    3    0.000000    0.000000
   -6   -4    4    1    4    0.000001   -0.000000
   -6   -4    4    2    4   -0.000000   -0.000000
   -6   -4    4    3    4   -0.000000   -0.000000
   -6   -4    4    4    4   -0.000001    0.000000
   -6   -4    4    5    4   -0.000001    0.000000
   -6   -4    4    1    5   -0.000000    0.000000
   -6   -4    4    2    5   -0.000000   -0.000000
   -6   -4    4    3    5    0.000000   -0.000000
   -6   -4    4    4    5   -0.000001   -0.000000
   -6   -4    4    5    5   -0.000001   -0.000000
   -6   -4    5    1    1    0.000001   -0.000000
   -6   -4    5    2    1   -0.000000   -0.000000
   -6   -4    5    3    1    0.000000    0.000000
   -6   -4    5    4    1   -0.000001    0.000000
   -6   -4    5    5    1   -0.000001    0.000000
   -6   -4    5    1    2   -0.000000    0.000000
   -6   -4    5    2    2    0.000001    0.000000
   -6   -4    5    3    2    0.000000   -0.000000
   -6   -4    5    4    2   -0.000000    0.000000
   -6   -4    5    5    2   -0.000000   -0.000000
   -6   -4    5    1    3    0.000000   -0.000000
   -6   -4    5    2    3    0.000000    0.000000
   -6   -4    5    3    3   -0.000000    0.000000
   -6   -4    5    4    3    0.000000    0.000000
   -6   -4    5    5    3   -0.000000    0.000000
   -6   -4    5    1    4   -0.000001   -0.000000
   -6   -4    5    2    4   -0.000000   -0.000000
   -6   -4    5    3    4   -0.000000   -0.000000
   -6   -4    5    4    4   -0.000000   -0.000000
   -6   -4    5    5    4    0.000000   -0.000000
   -6   -4    5    1    5   -0.000001   -0.000000
   -6   -4    5    2    5   -0.000000    0.000000
   -6   -4    5    3    5   -0.000000   -0.000000
   -6   -4    5    4    5    0.000000    0.000000
   -6   -4    5    5    5   -0.000000   -0.000000
   -6   -3   -5    1    1    0.000000   -0.000000
   -6   -3   -5    2    1    0.000000   -0.000000
   -6   -3   -5    3    1   -0.000000   -0.000000
   -6   -3   -5    4    1    0.000000   -0.000000
   -6   -3   -5    5    1   -0.000000    0.000000
   -6   -3   -5    1    2    0.000000    0.000000
   -6   -3   -5    2    2    0.000001   -0.000000
   -6   -3   -5    3    2    0.000000    0.000000
   -6   -3   -5    4    2    0.000000    0.000000
   -6   -3   -5    5    2    0.000000    0.000000
   -6   -3   -5    1    3   -0.000000    0.000000
   -6   -3   -5    2    3    0.000000   -0.000000
   -6   -3   -5    3    3   -0.000001   -0.000000
   -6   -3   -5    4    3    0.000000    0.000000
   -6   -3   -5    5    3   -0.000000   -0.000000
   -6   -3   -5    1    4    0.000000    0.000000
   -6   -3   -5    2    4    0.000000   -0.000000
   -6   -3   -5    3    4   -0.000000   -0.000000
   -6   -3   -5    4    4   -0.000000    0.000000
   -6   -3   -5    5    4    0.000001    0.000000
   -6   -3   -5    1    5   -0.000000   -0.000000
   -6   -3   -5    2    5    0.000000   -0.000000
   -6   -3   -5    3    5   -0.000000    0.000000
   -6   -3   -5    4    5    0.000000   -0.000000
   -6   -3   -5    5    5   -0.000000    0.000000
   -6   -3   -4    1    1   -0.000001    0.000000
   -6   -3   -4    2    1    0.000000    0.000000
   -6   -3   -4    3    1   -0.000001   -0.000000
   -6   -3   -4    4    1    0.000000    0.000000
   -6   -3   -4    5    1    0.000001   -0.000000
   -6   -3   -4    1    2    0.000000   -0.000000
   -6   -3   -4    2    2    0.000001    0.000000
   -6   -3   -4    3    2    0.000000    0.000000
   -6   -3   -4    4    2   -0.000000   -0.000000
   -6   -3   -4    5    2    0.000000    0.000000
   -6   -3   -4    1    3   -0.000001    0.000000
   -6   -3   -4    2    3    0.000000   -0.000000
   -6   -3   -4    3    3   -0.000000   -0.000000
   -6   -3   -4    4    3    0.000000   -0.000000
   -6   -3   -4    5    3   -0.000000   -0.000000
   -6   -3   -4    1    4    0.000000   -0.000000
   -6   -3   -4    2    4   -0.000000    0.000000
   -6   -3   -4    3    4    0.000000    0.000000
   -6   -3   -4    4    4   -0.000000    0.000000
   -6   -3   -4    5    4    0.000000    0.000000
   -6   -3   -4    1    5    0.000001    0.000000
   -6   -3   -4    2    5    0.000000   -0.000000
   -6   -3   -4    3    5   -0.000000    0.000000
   -6   -3   -4    4    5    0.000000   -0.000000
   -6   -3   -4    5    5    0.000001   -0.000000
   -6   -3   -3    1    1    0.000001   -0.000000
   -6   -3   -3    2    1    0.000001   -0.000000
   -6   -3   -3    3    1   -0.000001   -0.000000
   -6   -3   -3    4    1   -0.000000    0.000000
   -6   -3   -3    5    1    0.000001    0.000000
   -6   -3   -3    1    2    0.000001    0.000000
   -6   -3   -3    2    2   -0.000000    0.000000
   -6   -3   -3    3    2   -0.000000   -0.000000
   -6   -3   -3    4    2    0.000000    0.000000
   -6   -3   -3    5    2   -0.000001    0.000000
   -6   -3   -3    1    3   -0.000001    0.000000
   -6   -3   -3    2    3   -0.000000    0.000000
   -6   -3   -3    3    3    0.000001    0.000000
   -6   -3   -3    4    3    0.000000    0.000000
   -6   -3   -3    5    3    0.000000   -0.000000
   -6   -3   -3    1    4   -0.000000   -0.000000
   -6   -3   -3    2    4    0.000000   -0.000000
   -6   -3   -3    3    4    0.000000   -0.000000
   -6   -3   -3    4    4   -0.000000    0.000000
   -6   -3   -3    5    4    0.000001    0.000000
   -6   -3   -3    1    5    0.000001   -0.000000
   -6   -3   -3    2    5   -0.000001   -0.000000
   -6   -3   -3    3    5    0.000000    0.000000
   -6   -3   -3    4    5    0.000001   -0.000000
   -6   -3   -3    5    5    0.000001   -0.000000
   -6   -3   -2    1    1    0.000003    0.000000
   -6   -3   -2    2    1    0.000000    0.000000
   -6   -3   -2    3    1   -0.000001   -0.000000
   -6   -3   -2    4    1   -0.000001    0.000000
   -6   -3   -2    5    1    0.000002   -0.000000
   -6   -3   -2    1    2    0.000000   -0.000000
   -6   -3   -2    2    2    0.000000    0.000000
   -6   -3   -2    3    2   -0.000000    0.000000
   -6   -3   -2    4    2   -0.000000   -0.000000
   -6   -3   -2    5    2    0.000000   -0.000000
   -6   -3   -2    1    3   -0.000001    0.000000
   -6   -3   -2    2    3   -0.000000   -0.000000
   -6   -3   -2    3    3    0.000001   -0.000000
   -6   -3   -2    4    3   -0.000000    0.000000
   -6   -3   -2    5    3   -0.000001   -0.000000
   -6   -3   -2    1    4   -0.000001   -0.000000
   -6   -3   -2    2    4   -0.000000    0.000000
   -6   -3   -2    3    4   -0.000000   -0.000000
   -6   -3   -2    4    4   -0.000002   -0.000000
   -6   -3   -2    5    4    0.000001    0.000000
   -6   -3   -2    1    5    0.000002    0.000000
   -6   -3   -2    2    5    0.000000    0.000000
   -6   -3   -2    3    5   -0.000001    0.000000
   -6   -3   -2    4    5    0.000001   -0.000000
   -6   -3   -2    5    5    0.000009    0.000000
   -6   -3   -1    1    1   -0.000023   -0.000000
   -6   -3   -1    2    1   -0.000006    0.000000
   -6   -3   -1    3    1   -0.000002   -0.000000
   -6   -3   -1    4    1   -0.000009   -0.000000
   -6   -3   -1    5    1   -0.000006   -0.000000
   -6   -3   -1    1    2   -0.000006   -0.000000
   -6   -3   -1    2    2    0.000004   -0.000000
   -6   -3   -1    3    2   -0.000007    0.000000
   -6   -3   -1    4    2    0.000003    0.000000
   -6   -3   -1    5    2   -0.000003    0.000000
   -6   -3   -1    1    3   -0.000002    0.000000
   -6   -3   -1    2    3   -0.000007   -0.000000
   -6   -3   -1    3    3   -0.000004    0.000000
   -6   -3   -1    4    3    0.000001    0.000000
   -6   -3   -1    5    3   -0.000006    0.000000
   -6   -3   -1    1    4   -0.000009    0.000000
   -6   -3   -1    2    4    0.000003   -0.000000
   -6   -3   -1    3    4    0.000001   -0.000000
   -6   -3   -1    4    4    0.000002   -0.000000
   -6   -3   -1    5    4    0.000005    0.000000
   -6   -3   -1    1    5   -0.000006    0.000000
   -6   -3   -1    2    5   -0.000003   -0.000000
   -6   -3   -1    3    5   -0.000006   -0.000000
   -6   -3   -1    4    5    0.000005   -0.000000
   -6   -3   -1    5    5    0.000016   -0.000000
   -6   -3    0    1    1   -0.000020   -0.000000
   -6   -3    0    2    1   -0.000014    0.000000
   -6   -3    0    3    1    0.000000   -0.000000
   -6   -3    0    4    1   -0.000025    0.000000
   -6   -3    0    5    1   -0.000005   -0.000000
   -6   -3    0    1    2   -0.000014   -0.000000
   -6   -3    0    2    2   -0.000025    0.000000
   -6   -3    0    3    2    0.000014    0.000000
   -6   -3    0    4    2   -0.000016    0.000000
   -6   -3    0    5    2   -0.000003   -0.000000
   -6   -3    0    1    3    0.000000    0.000000
   -6   -3    0    2    3    0.000014   -0.000000
   -6   -3    0    3    3   -0.000012    0.000000
   -6   -3    0    4    3    0.000005   -0.000000
   -6   -3    0    5    3    0.000016    0.000000
   -6   -3    0    1    4   -0.000025   -0.000000
   -6   -3    0    2    4   -0.000016   -0.000000
   -6   -3    0    3    4    0.000005    0.000000
   -6   -3    0    4    4    0.000006    0.000000
   -6   -3    0    5    4   -0.000010    0.000000
   -6   -3    0    1    5   -0.000005    0.000000
   -6   -3    0    2    5   -0.000003    0.000000
   -6   -3    0    3    5    0.000016   -0.000000
   -6   -3    0    4    5   -0.000010   -0.000000
   -6   -3    0    5    5    0.000008    0.000000
   -6   -3    1    1    1   -0.000160   -0.000000
   -6   -3    1    2    1   -0.000039    0.000000
   -6   -3    1    3    1   -0.000042    0.000000
   -6   -3    1    4    1    0.000021    0.000000
   -6   -3    1    5    1    0.000001    0.000000
   -6   -3    1    1    2   -0.000039   -0.000000
   -6   -3    1    2    2    0.000009    0.000000
   -6   -3    1    3    2   -0.000013   -0.000000
   -6   -3    1    4    2    0.000013   -0.000000
   -6   -3    1    5    2    0.000009    0.000000
   -6   -3    1    1    3   -0.000042   -0.000000
   -6   -3    1    2    3   -0.000013   -0.000000
   -6   -3    1    3    3   -0.000007    0.000000
   -6   -3    1    4    3    0.000008    0.000000
   -6   -3    1    5    3    0.000015   -0.000000
   -6   -3    1    1    4    0.000021   -0.000000
   -6   -3    1    2    4    0.000014    0.000000
   -6   -3    1    3    4    0.000008   -0.000000
   -6   -3    1    4    4    0.000000    0.000000
   -6   -3    1    5    4    0.000009   -0.000000
   -6   -3    1    1    5    0.000001   -0.000000
   -6   -3    1    2    5    0.000009   -0.000000
   -6   -3    1    3    5    0.000015    0.000000
   -6   -3    1    4    5    0.000009    0.000000
   -6   -3    1    5    5   -0.000005   -0.000000
   -6   -3    2    1    1    0.000049   -0.000000
   -6   -3    2    2    1    0.000016   -0.000000
   -6   -3    2    3    1    0.000012    0.000000
   -6   -3    2    4    1   -0.000003    0.000000
   -6   -3    2    5    1    0.000027    0.000000
   -6   -3    2    1    2    0.000016    0.000000
   -6   -3    2    2    2   -0.000002   -0.000000
   -6   -3    2    3    2    0.000004    0.000000
   -6   -3    2    4    2   -0.000005    0.000000
   -6   -3    2    5    2   -0.000002    0.000000
   -6   -3    2    1    3    0.000012   -0.000000
   -6   -3    2    2    3    0.000004   -0.000000
   -6   -3    2    3    3    0.000005    0.000000
   -6   -3    2    4    3   -0.000001    0.000000
   -6   -3    2    5    3   -0.000006    0.000000
   -6   -3    2    1    4   -0.000003   -0.000000
   -6   -3    2    2    4   -0.000005   -0.000000
   -6   -3    2    3    4   -0.000001   -0.000000
   -6   -3    2    4    4   -0.000002   -0.000000
   -6   -3    2    5    4   -0.000009   -0.000000
   -6   -3    2    1    5    0.000027   -0.000000
   -6   -3    2    2    5   -0.000002   -0.000000
   -6   -3    2    3    5   -0.000006   -0.000000
   -6   -3    2    4    5   -0.000009    0.000000
   -6   -3    2    5    5    0.000001    0.000000
   -6   -3    3    1    1   -0.000015    0.000000
   -6   -3    3    2    1   -0.000001   -0.000000
   -6   -3    3    3    1    0.000001   -0.000000
   -6   -3    3    4    1   -0.000000   -0.000000
   -6   -3    3    5    1   -0.000008    0.000000
   -6   -3    3    1    2   -0.000001    0.000000
   -6   -3    3    2    2    0.000001    0.000000
   -6   -3    3    3    2   -0.000000   -0.000000
   -6   -3    3    4    2   -0.000000    0.000000
   -6   -3    3    5    2    0.000000   -0.000000
   -6   -3    3    1    3    0.000001    0.000000
   -6   -3    3    2    3   -0.000000    0.000000
   -6   -3    3    3    3    0.000001   -0.000000
   -6   -3    3    4    3   -0.000000    0.000000
   -6   -3    3    5    3    0.000001    0.000000
   -6   -3    3    1    4   -0.000000    0.000000
   -6   -3    3    2    4   -0.000000   -0.000000
   -6   -3    3    3    4   -0.000000   -0.000000
   -6   -3    3    4    4    0.000001   -0.000000
   -6   -3    3    5    4    0.000001    0.000000
   -6   -3    3    1    5   -0.000008   -0.000000
   -6   -3    3    2    5    0.000000    0.000000
   -6   -3    3    3    5    0.000001   -0.000000
   -6   -3    3    4    5    0.000001   -0.000000
   -6   -3    3    5    5    0.000001    0.000000
   -6   -3    4    1    1   -0.000001   -0.000000
   -6   -3    4    2    1   -0.000000    0.000000
   -6   -3    4    3    1   -0.000001    0.000000
   -6   -3    4    4    1    0.000001    0.000000
   -6   -3    4    5    1    0.000001    0.000000
   -6   -3    4    1    2   -0.000000   -0.000000
   -6   -3    4    2    2   -0.000000   -0.000000
   -6   -3    4    3    2   -0.000000   -0.000000
   -6   -3    4    4    2   -0.000000    0.000000
   -6   -3    4    5    2    0.000000   -0.000000
   -6   -3    4    1    3   -0.000001   -0.000000
   -6   -3    4    2    3   -0.000000    0.000000
   -6   -3    4    3    3   -0.000000    0.000000
   -6   -3    4    4    3   -0.000000    0.000000
   -6   -3    4    5    3   -0.000000    0.000000
   -6   -3    4    1    4    0.000001   -0.000000
   -6   -3    4    2    4   -0.000000   -0.000000
   -6   -3    4    3    4   -0.000000   -0.000000
   -6   -3    4    4    4    0.000000    0.000000
   -6   -3    4    5    4    0.000000    0.000000
   -6   -3    4    1    5    0.000001   -0.000000
   -6   -3    4    2    5    0.000000    0.000000
   -6   -3    4    3    5   -0.000000   -0.000000
   -6   -3    4    4    5    0.000000   -0.000000
   -6   -3    4    5    5   -0.000000    0.000000
   -6   -3    5    1    1   -0.000000    0.000000
   -6   -3    5    2    1   -0.000000    0.000000
   -6   -3    5    3    1    0.000000    0.000000
   -6   -3    5    4    1   -0.000000    0.000000
   -6   -3    5    5    1    0.000000   -0.000000
   -6   -3    5    1    2   -0.000000   -0.000000
   -6   -3    5    2    2   -0.000001    0.000000
   -6   -3    5    3    2   -0.000000   -0.000000
   -6   -3    5    4    2   -0.000000   -0.000000
   -6   -3    5    5    2   -0.000000   -0.000000
   -6   -3    5    1    3    0.000000   -0.000000
   -6   -3    5    2    3   -0.000000    0.000000
   -6   -3    5    3    3    0.000001    0.000000
   -6   -3    5    4    3   -0.000000   -0.000000
   -6   -3    5    5    3    0.000000    0.000000
   -6   -3    5    1    4   -0.000000   -0.000000
   -6   -3    5    2    4   -0.000000    0.000000
   -6   -3    5    3    4    0.000000    0.000000
   -6   -3    5    4    4    0.000000   -0.000000
   -6   -3    5    5    4   -0.000001   -0.000000
   -6   -3    5    1    5    0.000000    0.000000
   -6   -3    5    2    5   -0.000000    0.000000
   -6   -3    5    3    5    0.000000   -0.000000
   -6   -3    5    4    5   -0.000000    0.000000
   -6   -3    5    5    5    0.000000   -0.000000
   -6   -2   -5    1    1   -0.000000    0.000000
   -6   -2   -5    2    1    0.000000   -0.000000
   -6   -2   -5    3    1   -0.000000   -0.000000
   -6   -2   -5    4    1   -0.000000   -0.000000
   -6   -2   -5    5    1    0.000000    0.000000
   -6   -2   -5    1    2    0.000000    0.000000
   -6   -2   -5    2    2   -0.000000    0.000000
   -6   -2   -5    3    2   -0.000000   -0.000000
   -6   -2   -5    4    2    0.000000   -0.000000
   -6   -2   -5    5    2   -0.000000    0.000000
   -6   -2   -5    1    3   -0.000000    0.000000
   -6   -2   -5    2    3   -0.000000    0.000000
   -6   -2   -5    3    3    0.000000   -0.000000
   -6   -2   -5    4    3    0.000000   -0.000000
   -6   -2   -5    5    3    0.000000    0.000000
   -6   -2   -5    1    4   -0.000000    0.000000
   -6   -2   -5    2    4    0.000000    0.000000
   -6   -2   -5    3    4    0.000000    0.000000
   -6   -2   -5    4    4   -0.000000   -0.000000
   -6   -2   -5    5    4    0.000001   -0.000000
   -6   -2   -5    1    5    0.000001   -0.000000
   -6   -2   -5    2    5   -0.000000   -0.000000
   -6   -2   -5    3    5    0.000000   -0.000000
   -6   -2   -5    4    5    0.000001    0.000000
   -6   -2   -5    5    5    0.000000    0.000000
   -6   -2   -4    1    1    0.000001    0.000000
   -6   -2   -4    2    1    0.000000   -0.000000
   -6   -2   -4    3    1   -0.000000   -0.000000
   -6   -2   -4    4    1    0.000001    0.000000
   -6   -2   -4    5    1    0.000000    0.000000
   -6   -2   -4    1    2    0.000000    0.000000
   -6   -2   -4    2    2   -0.000000    0.000000
   -6   -2   -4    3    2   -0.000000    0.000000
   -6   -2   -4    4    2    0.000000   -0.000000
   -6   -2   -4    5    2    0.000001   -0.000000
   -6   -2   -4    1    3   -0.000000    0.000000
   -6   -2   -4    2    3   -0.000000   -0.000000
   -6   -2   -4    3    3    0.000000   -0.000000
   -6   -2   -4    4    3    0.000000    0.000000
   -6   -2   -4    5    3   -0.000000   -0.000000
   -6   -2   -4    1    4    0.000001   -0.000000
   -6   -2   -4    2    4    0.000000    0.000000
   -6   -2   -4    3    4    0.000000   -0.000000
   -6   -2   -4    4    4    0.000001   -0.000000
   -6   -2   -4    5    4   -0.000000    0.000000
   -6   -2   -4    1    5    0.000000   -0.000000
   -6   -2   -4    2    5    0.000001    0.000000
   -6   -2   -4    3    5   -0.000000    0.000000
   -6   -2   -4    4    5   -0.000000   -0.000000
   -6   -2   -4    5    5   -0.000000    0.000000
   -6   -2   -3    1    1   -0.000002   -0.000000
   -6   -2   -3    2    1    0.000000   -0.000000
   -6   -2   -3    3    1   -0.000000    0.000000
   -6   -2   -3    4    1    0.000000   -0.000000
   -6   -2   -3    5    1    0.000002   -0.000000
   -6   -2   -3    1    2    0.000000    0.000000
   -6   -2   -3    2    2    0.000001   -0.000000
   -6   -2   -3    3    2    0.000001    0.000000
   -6   -2   -3    4    2    0.000000   -0.000000
   -6   -2   -3    5    2   -0.000000   -0.000000
   -6   -2   -3    1    3   -0.000000   -0.000000
   -6   -2   -3    2    3    0.000001   -0.000000
   -6   -2   -3    3    3    0.000000   -0.000000
   -6   -2   -3    4    3   -0.000000    0.000000
   -6   -2   -3    5    3   -0.000001    0.000000
   -6   -2   -3    1    4    0.000000    0.000000
   -6   -2   -3    2    4    0.000000    0.000000
   -6   -2   -3    3    4   -0.000000   -0.000000
   -6   -2   -3    4    4   -0.000001    0.000000
   -6   -2   -3    5    4    0.000001   -0.000000
   -6   -2   -3    1    5    0.000002    0.000000
   -6   -2   -3    2    5   -0.000000    0.000000
   -6   -2   -3    3    5   -0.000001   -0.000000
   -6   -2   -3    4    5    0.000001    0.000000
   -6   -2   -3    5    5    0.000004   -0.000000
   -6   -2   -2    1    1   -0.000005   -0.000000
   -6   -2   -2    2    1    0.000001   -0.000000
   -6   -2   -2    3    1   -0.000001    0.000000
   -6   -2   -2    4    1   -0.000002   -0.000000
   -6   -2   -2    5    1    0.000003    0.000000
   -6   -2   -2    1    2    0.000000    0.000000
   -6   -2   -2    2    2    0.000001    0.000000
   -6   -2   -2    3    2    0.000001   -0.000000
   -6   -2   -2    4    2    0.000000   -0.000000
   -6   -2   -2    5    2   -0.000004    0.000000
   -6   -2   -2    1    3   -0.000000   -0.000000
   -6   -2   -2    2    3    0.000001    0.000000
   -6   -2   -2    3    3    0.000000    0.000000
   -6   -2   -2    4    3   -0.000002    0.000000
   -6   -2   -2    5    3   -0.000002    0.000000
   -6   -2   -2    1    4   -0.000002    0.000000
   -6   -2   -2    2    4    0.000000    0.000000
   -6   -2   -2    3    4   -0.000002   -0.000000
   -6   -2   -2    4    4   -0.000001   -0.000000
   -6   -2   -2    5    4    0.000003    0.000000
   -6   -2   -2    1    5    0.000003   -0.000000
   -6   -2   -2    2    5   -0.000004   -0.000000
   -6   -2   -2    3    5   -0.000002   -0.000000
   -6   -2   -2    4    5    0.000003   -0.000000
   -6   -2   -2    5    5    0.000002    0.000000
   -6   -2   -1    1    1    0.000004   -0.000000
   -6   -2   -1    2    1   -0.000005   -0.000000
   -6   -2   -1    3    1    0.000006    0.000000
   -6   -2   -1    4    1   -0.000010   -0.000000
   -6   -2   -1    5    1   -0.000003    0.000000
   -6   -2   -1    1    2   -0.000005    0.000000
   -6   -2   -1    2    2    0.000001    0.000000
   -6   -2   -1    3    2   -0.000007    0.000000
   -6   -2   -1    4    2   -0.000004   -0.000000
   -6   -2   -1    5    2   -0.000009   -0.000000
   -6   -2   -1    1    3    0.000006   -0.000000
   -6   -2   -1    2    3   -0.000007   -0.000000
   -6   -2   -1    3    3   -0.000005   -0.000000
   -6   -2   -1    4    3    0.000008    0.000000
   -6   -2   -1    5    3   -0.000001   -0.000000
   -6   -2   -1    1    4   -0.000010    0.000000
   -6   -2   -1    2    4   -0.000004    0.000000
   -6   -2   -1    3    4    0.000008   -0.000000
   -6   -2   -1    4    4    0.000003   -0.000000
   -6   -2   -1    5    4    0.000003   -0.000000
   -6   -2   -1    1    5   -0.000003   -0.000000
   -6   -2   -1    2    5   -0.000009    0.000000
   -6   -2   -1    3    5   -0.000001    0.000000
   -6   -2   -1    4    5    0.000003    0.000000
   -6   -2   -1    5    5   -0.000002   -0.000000
   -6   -2    0    1    1    0.000024   -0.000000
   -6   -2    0    2    1    0.000016   -0.000000
   -6   -2    0    3    1    0.000113    0.000000
   -6   -2    0    4    1    0.000017    0.000000
   -6   -2    0    5    1   -0.000013   -0.000000
   -6   -2    0    1    2    0.000015    0.000000
   -6   -2    0    2    2    0.000018    0.000000
   -6   -2    0    3    2    0.000013    0.000000
   -6   -2    0    4    2    0.000000   -0.000000
   -6   -2    0    5    2   -0.000011   -0.000000
   -6   -2    0    1    3    0.000113   -0.000000
   -6   -2    0    2    3    0.000013   -0.000000
   -6   -2    0    3    3    0.000002   -0.000000
   -6   -2    0    4    3   -0.000008    0.000000
   -6   -2    0    5    3    0.000059   -0.000000
   -6   -2    0    1    4    0.000017   -0.000000
   -6   -2    0    2    4    0.000000    0.000000
   -6   -2    0    3    4   -0.000008   -0.000000
   -6   -2    0    4    4   -0.000003   -0.000000
   -6   -2    0    5    4    0.000047    0.000000
   -6   -2    0    1    5   -0.000013    0.000000
   -6   -2    0    2    5   -0.000011    0.000000
   -6   -2    0    3    5    0.000059    0.000000
   -6   -2    0    4    5    0.000047   -0.000000
   -6   -2    0    5    5   -0.000028    0.000000
   -6   -2    1    1    1   -0.000036   -0.000000
   -6   -2    1    2    1   -0.000003   -0.000000
   -6   -2    1    3    1   -0.000034    0.000000
   -6   -2    1    4    1   -0.000000   -0.000000
   -6   -2    1    5    1    0.000023   -0.000000
   -6   -2    1    1    2   -0.000003    0.000000
   -6   -2    1    2    2    0.000001    0.000000
   -6   -2    1    3    2   -0.000005    0.000000
   -6   -2    1    4    2   -0.000001   -0.000000
   -6   -2    1    5    2    0.000003   -0.000000
   -6   -2    1    1    3   -0.000034   -0.000000
   -6   -2    1    2    3   -0.000005   -0.000000
   -6   -2    1    3    3   -0.000002    0.000000
   -6   -2    1    4    3    0.000005    0.000000
   -6   -2    1    5    3   -0.000018   -0.000000
   -6   -2    1    1    4   -0.000000    0.000000
   -6   -2    1    2    4   -0.000001    0.000000
   -6   -2    1    3    4    0.000005   -0.000000
   -6   -2    1    4    4   -0.000003   -0.000000
   -6   -2    1    5    4   -0.000007    0.000000
   -6   -2    1    1    5    0.000023    0.000000
   -6   -2    1    2    5    0.000003    0.000000
   -6   -2    1    3    5   -0.000018    0.000000
   -6   -2    1    4    5   -0.000007   -0.000000
   -6   -2    1    5    5    0.000029    0.000000
   -6   -2    2    1    1    0.000027   -0.000000
   -6   -2    2    2    1   -0.000005    0.000000
   -6   -2    2    3    1    0.000019    0.000000
   -6   -2    2    4    1   -0.000007   -0.000000
   -6   -2    2    5    1   -0.000019   -0.000000
   -6   -2    2    1    2   -0.000004   -0.000000
   -6   -2    2    2    2   -0.000002   -0.000000
   -6   -2    2    3    2    0.000003   -0.000000
   -6   -2    2    4    2    0.000002    0.000000
   -6   -2    2    5    2   -0.000003   -0.000000
   -6   -2    2    1    3    0.000019   -0.000000
   -6   -2    2    2    3    0.000002    0.000000
   -6   -2    2    3    3   -0.000000    0.000000
   -6   -2    2    4    3   -0.000002   -0.000000
   -6   -2    2    5    3    0.000011    0.000000
   -6   -2    2    1    4   -0.000007    0.000000
   -6   -2    2    2    4    0.000002   -0.000000
   -6   -2    2    3    4   -0.000002    0.000000
   -6   -2    2    4    4    0.000002    0.000000
   -6   -2    2    5    4    0.000002   -0.000000
   -6   -2    2    1    5   -0.000019    0.000000
   -6   -2    2    2    5   -0.000003    0.000000
   -6   -2    2    3    5    0.000011   -0.000000
   -6   -2    2    4    5    0.000002    0.000000
   -6   -2    2    5    5   -0.000019   -0.000000
   -6   -2    3    1    1   -0.000010   -0.000000
   -6   -2    3    2    1    0.000001   -0.000000
   -6   -2    3    3    1   -0.000003    0.000000
   -6   -2    3    4    1    0.000002   -0.000000
   -6   -2    3    5    1    0.000008    0.000000
   -6   -2    3    1    2    0.000001    0.000000
   -6   -2    3    2    2    0.000000   -0.000000
   -6   -2    3    3    2   -0.000000    0.000000
   -6   -2    3    4    2   -0.000000    0.000000
   -6   -2    3    5    2   -0.000000   -0.000000
   -6   -2    3    1    3   -0.000003   -0.000000
   -6   -2    3    2    3   -0.000000   -0.000000
   -6   -2    3    3    3    0.000001    0.000000
   -6   -2    3    4    3   -0.000000    0.000000
   -6   -2    3    5    3   -0.000002    0.000000
   -6   -2    3    1    4    0.000002    0.000000
   -6   -2    3    2    4    0.000000   -0.000000
   -6   -2    3    3    4   -0.000000   -0.000000
   -6   -2    3    4    4    0.000001    0.000000
   -6   -2    3    5    4    0.000000    0.000000
   -6   -2    3    1    5    0.000008   -0.000000
   -6   -2    3    2    5   -0.000000    0.000000
   -6   -2    3    3    5   -0.000002   -0.000000
   -6   -2    3    4    5    0.000000   -0.000000
   -6   -2    3    5    5    0.000005   -0.000000
   -6   -2    4    1    1   -0.000000   -0.000000
   -6   -2    4    2    1   -0.000000   -0.000000
   -6   -2    4    3    1   -0.000001    0.000000
   -6   -2    4    4    1    0.000000    0.000000
   -6   -2    4    5    1    0.000000   -0.000000
   -6   -2    4    1    2   -0.000000    0.000000
   -6   -2    4    2    2    0.000001    0.000000
   -6   -2    4    3    2   -0.000000   -0.000000
   -6   -2    4    4    2   -0.000000   -0.000000
   -6   -2    4    5    2    0.000000   -0.000000
   -6   -2    4    1    3   -0.000001   -0.000000
   -6   -2    4    2    3    0.000000    0.000000
   -6   -2    4    3    3    0.000000   -0.000000
   -6   -2    4    4    3    0.000000    0.000000
   -6   -2    4    5    3   -0.000000   -0.000000
   -6   -2    4    1    4    0.000000   -0.000000
   -6   -2    4    2    4   -0.000000    0.000000
   -6   -2    4    3    4    0.000000   -0.000000
   -6   -2    4    4    4   -0.000000   -0.000000
   -6   -2    4    5    4   -0.000000   -0.000000
   -6   -2    4    1    5    0.000000    0.000000
   -6   -2    4    2    5    0.000000    0.000000
   -6   -2    4    3    5   -0.000000    0.000000
   -6   -2    4    4    5   -0.000000    0.000000
   -6   -2    4    5    5    0.000002   -0.000000
   -6   -2    5    1    1    0.000000   -0.000000
   -6   -2    5    2    1   -0.000000    0.000000
   -6   -2    5    3    1    0.000000    0.000000
   -6   -2    5    4    1    0.000000    0.000000
   -6   -2    5    5    1   -0.000000   -0.000000
   -6   -2    5    1    2   -0.000000   -0.000000
   -6   -2    5    2    2    0.000000   -0.000000
   -6   -2    5    3    2    0.000000    0.000000
   -6   -2    5    4    2   -0.000000    0.000000
   -6   -2    5    5    2    0.000000   -0.000000
   -6   -2    5    1    3    0.000000   -0.000000
   -6   -2    5    2    3    0.000000   -0.000000
   -6   -2    5    3    3   -0.000000    0.000000
   -6   -2    5    4    3   -0.000000    0.000000
   -6   -2    5    5    3   -0.000000   -0.000000
   -6   -2    5    1    4    0.000000   -0.000000
   -6   -2    5    2    4   -0.000000   -0.000000
   -6   -2    5    3    4   -0.000000   -0.000000
   -6   -2    5    4    4    0.000000    0.000000
   -6   -2    5    5    4   -0.000001    0.000000
   -6   -2    5    1    5   -0.000001    0.000000
   -6   -2    5    2    5    0.000000    0.000000
   -6   -2    5    3    5   -0.000000    0.000000
   -6   -2    5    4    5   -0.000001   -0.000000
   -6   -2    5    5    5   -0.000000   -0.000000
   -5   -5   -5    1    1   -0.000000    0.000000
   -5   -5   -5    2    1   -0.000000   -0.000000
   -5   -5   -5    3    1    0.000000    0.000000
   -5   -5   -5    4    1    0.000000    0.000000
   -5   -5   -5    5    1   -0.000000   -0.000000
   -5   -5   -5    1    2    0.000000   -0.000000
   -5   -5   -5    2    2   -0.000000    0.000000
   -5   -5   -5    3    2   -0.000000   -0.000000
   -5   -5   -5    4    2   -0.000000   -0.000000
   -5   -5   -5    5    2    0.000000   -0.000000
   -5   -5   -5    1    3   -0.000000    0.000000
   -5   -5   -5    2    3    0.000000   -0.000000
   -5   -5   -5    3    3   -0.000000    0.000000
   -5   -5   -5    4    3    0.000000   -0.000000
   -5   -5   -5    5    3    0.000000   -0.000000
   -5   -5   -5    1    4   -0.000000    0.000000
   -5   -5   -5    2    4    0.000000   -0.000000
   -5   -5   -5    3    4   -0.000000   -0.000000
   -5   -5   -5    4    4   -0.000000   -0.000000
   -5   -5   -5    5    4   -0.000000   -0.000000
   -5   -5   -5    1    5    0.000000   -0.000000
   -5   -5   -5    2    5   -0.000000   -0.000000
   -5   -5   -5    3    5   -0.000000   -0.000000
   -5   -5   -5    4    5    0.000000   -0.000000
   -5   -5   -5    5    5   -0.000000   -0.000000
   -5   -5   -4    1    1   -0.000001    0.000000
   -5   -5   -4    2    1    0.000000    0.000000
   -5   -5   -4    3    1   -0.000000    0.000000
   -5   -5   -4    4    1    0.000000   -0.000000
   -5   -5   -4    5    1    0.000001    0.000000
   -5   -5   -4    1    2    0.000000    0.000000
   -5   -5   -4    2    2   -0.000000    0.000000
   -5   -5   -4    3    2   -0.000000    0.000000
   -5   -5   -4    4    2   -0.000000   -0.000000
   -5   -5   -4    5    2    0.000000   -0.000000
   -5   -5   -4    1    3   -0.000000   -0.000000
   -5   -5   -4    2    3   -0.000000   -0.000000
   -5   -5   -4    3    3    0.000000   -0.000000
   -5   -5   -4    4    3    0.000000    0.000000
   -5   -5   -4    5    3    0.000000   -0.000000
   -5   -5   -4    1    4    0.000000    0.000000
   -5   -5   -4    2    4   -0.000000    0.000000
   -5   -5   -4    3    4    0.000000   -0.000000
   -5   -5   -4    4    4    0.000000    0.000000
   -5   -5   -4    5    4   -0.000000    0.000000
   -5   -5   -4    1    5    0.000001   -0.000000
   -5   -5   -4    2    5    0.000000    0.000000
   -5   -5   -4    3    5    0.000000    0.000000
   -5   -5   -4    4    5   -0.000000   -0.000000
   -5   -5   -4    5    5    0.000000   -0.000000
   -5   -5   -3    1    1   -0.000002    0.000000
   -5   -5   -3    2    1    0.000000   -0.000000
   -5   -5   -3    3    1   -0.000003   -0.000000
   -5   -5   -3    4    1    0.000002    0.000000
   -5   -5   -3    5    1    0.000001    0.000000
   -5   -5   -3    1    2    0.000000    0.000000
   -5   -5   -3    2    2    0.000000   -0.000000
   -5   -5   -3    3    2   -0.000001    0.000000
   -5   -5   -3    4    2   -0.000000   -0.000000
   -5   -5   -3    5    2   -0.000001   -0.000000
   -5   -5   -3    1    3   -0.000003    0.000000
   -5   -5   -3    2    3   -0.000001   -0.000000
   -5   -5   -3    3    3    0.000002   -0.000000
   -5   -5   -3    4    3    0.000001   -0.000000
   -5   -5   -3    5    3    0.000000    0.000000
   -5   -5   -3    1    4    0.000002   -0.000000
   -5   -5   -3    2    4   -0.000000    0.000000
   -5   -5   -3    3    4    0.000001    0.000000
   -5   -5   -3    4    4    0.000001    0.000000
   -5   -5   -3    5    4   -0.000002   -0.000000
   -5   -5   -3    1    5    0.000001   -0.000000
   -5   -5   -3    2    5   -0.000001    0.000000
   -5   -5   -3    3    5    0.000000   -0.000000
   -5   -5   -3    4    5   -0.000002    0.000000
   -5   -5   -3    5    5   -0.000000    0.000000
   -5   -5   -2    1    1   -0.000019   -0.000000
   -5   -5   -2    2    1   -0.000002    0.000000
   -5   -5   -2    3    1   -0.000001    0.000000
   -5   -5   -2    4    1    0.000003    0.000000
   -5   -5   -2    5    1    0.000001    0.000000
   -5   -5   -2    1    2   -0.000002   -0.000000
   -5   -5   -2    2    2   -0.000003    0.000000
   -5   -5   -2    3    2    0.000003   -0.000000
   -5   -5   -2    4    2    0.000003   -0.000000
   -5   -5   -2    5    2   -0.000004   -0.000000
   -5   -5   -2    1    3   -0.000001   -0.000000
   -5   -5   -2    2    3    0.000003    0.000000
   -5   -5   -2    3    3    0.000004    0.000000
   -5   -5   -2    4    3    0.000003    0.000000
   -5   -5   -2    5    3    0.000001    0.000000
   -5   -5   -2    1    4    0.000003   -0.000000
   -5   -5   -2    2    4    0.000003    0.000000
   -5   -5   -2    3    4    0.000003   -0.000000
   -5   -5   -2    4    4    0.000001    0.000000
   -5   -5   -2    5    4   -0.000002    0.000000
   -5   -5   -2    1    5    0.000001   -0.000000
   -5   -5   -2    2    5   -0.000004    0.000000
   -5   -5   -2    3    5    0.000001   -0.000000
   -5   -5   -2    4    5   -0.000002   -0.000000
   -5   -5   -2    5    5   -0.000017   -0.000000
   -5   -5   -1    1    1    0.000036    0.000000
   -5   -5   -1    2    1    0.000023    0.000000
   -5   -5   -1    3    1   -0.000013    0.000000
   -5   -5   -1    4    1   -0.000007   -0.000000
   -5   -5   -1    5    1   -0.000044   -0.000000
   -5   -5   -1    1    2    0.000023   -0.000000
   -5   -5   -1    2    2    0.000048   -0.000000
   -5   -5   -1    3    2    0.000005   -0.000000
   -5   -5   -1    4    2   -0.000004   -0.000000
   -5   -5   -1    5    2    0.000032   -0.000000
   -5   -5   -1    1    3   -0.000013   -0.000000
   -5   -5   -1    2    3    0.000006    0.000000
   -5   -5   -1    3    3   -0.000004    0.000000
   -5   -5   -1    4    3   -0.000003    0.000000
   -5   -5   -1    5    3   -0.000000   -0.000000
   -5   -5   -1    1    4   -0.000007    0.000000
   -5   -5   -1    2    4   -0.000004    0.000000
   -5   -5   -1    3    4   -0.000003   -0.000000
   -5   -5   -1    4    4   -0.000009   -0.000000
   -5   -5   -1    5    4   -0.000020   -0.000000
   -5   -5   -1    1    5   -0.000044    0.000000
   -5   -5   -1    2    5    0.000032    0.000000
   -5   -5   -1    3    5   -0.000000    0.000000
   -5   -5   -1    4    5   -0.000020    0.000000
   -5   -5   -1    5    5   -0.000003    0.000000
   -5   -5    0    1    1    0.000512    0.000000
   -5   -5    0    2    1    0.000162    0.000000
   -5   -5    0    3    1    0.000110   -0.000000
   -5   -5    0    4    1   -0.000172    0.000000
   -5   -5    0    5    1   -0.000512   -0.000000
   -5   -5    0    1    2    0.000162   -0.000000
   -5   -5    0    2    2   -0.000679   -0.000000
   -5   -5    0    3    2   -0.000210   -0.000000
   -5   -5    0    4    2    0.000023    0.000000
   -5   -5    0    5    2    0.000223   -0.000000
   -5   -5    0    1    3    0.000110    0.000000
   -5   -5    0    2    3   -0.000210    0.000000
   -5   -5    0    3    3   -0.000065    0.000000
   -5   -5    0    4    3   -0.000046   -0.000000
   -5   -5    0    5    3    0.000013   -0.000000
   -5   -5    0    1    4   -0.000172   -0.000000
   -5   -5    0    2    4    0.000023   -0.000000
   -5   -5    0    3    4   -0.000046    0.000000
   -5   -5    0    4    4    0.000015   -0.000000
   -5   -5    0    5    4    0.000034   -0.000000
   -5   -5    0    1    5   -0.000512    0.000000
   -5   -5    0    2    5    0.000223    0.000000
   -5   -5    0    3    5    0.000013    0.000000
   -5   -5    0    4    5    0.000034    0.000000
   -5   -5    0    5    5   -0.000041    0.000000
   -5   -5    1    1    1    0.000036   -0.000000
   -5   -5    1    2    1    0.000023    0.000000
   -5   -5    1    3    1   -0.000013    0.000000
   -5   -5    1    4    1   -0.000007   -0.000000
   -5   -5    1    5    1   -0.000044   -0.000000
   -5   -5    1    1    2    0.000023   -0.000000
   -5   -5    1    2    2    0.000048    0.000000
   -5   -5    1    3    2    0.000006   -0.000000
   -5   -5    1    4    2   -0.000004   -0.000000
   -5   -5    1    5    2    0.000032   -0.000000
   -5   -5    1    1    3   -0.000013   -0.000000
   -5   -5    1    2    3    0.000005    0.000000
   -5   -5    1    3    3   -0.000004   -0.000000
   -5   -5    1    4    3   -0.000003    0.000000
   -5   -5    1    5    3   -0.000000   -0.000000
   -5   -5    1    1    4   -0.000007    0.000000
   -5   -5    1    2    4   -0.000004    0.000000
   -5   -5    1    3    4   -0.000003   -0.000000
   -5   -5    1    4    4   -0.000009    0.000000
   -5   -5    1    5    4   -0.000020   -0.000000
   -5   -5    1    1    5   -0.000044    0.000000
   -5   -5    1    2    5    0.000032    0.000000
   -5   -5    1    3    5   -0.000000    0.000000
   -5   -5    1    4    5   -0.000020    0.000000
   -5   -5    1    5    5   -0.000003   -0.000000
   -5   -5    2    1    1   -0.000019    0.000000
   -5   -5    2    2    1   -0.000002    0.000000
   -5   -5    2    3    1   -0.000001    0.000000
   -5   -5    2    4    1    0.000003    0.000000
   -5   -5    2    5    1    0.000001    0.000000
   -5   -5    2    1    2   -0.000002   -0.000000
   -5   -5    2    2    2   -0.000003   -0.000000
   -5   -5    2    3    2    0.000003   -0.000000
   -5   -5    2    4    2    0.000003   -0.000000
   -5   -5    2    5    2   -0.000004   -0.000000
   -5   -5    2    1    3   -0.000001   -0.000000
   -5   -5    2    2    3    0.000003    0.000000
   -5   -5    2    3    3    0.000004   -0.000000
   -5   -5    2    4    3    0.000003    0.000000
   -5   -5    2    5    3    0.000001    0.000000
   -5   -5    2    1    4    0.000003   -0.000000
   -5   -5    2    2    4    0.000003    0.000000
   -5   -5    2    3    4    0.000003   -0.000000
   -5   -5    2    4    4    0.000001   -0.000000
   -5   -5    2    5    4   -0.000002    0.000000
   -5   -5    2    1    5    0.000001   -0.000000
   -5   -5    2    2    5   -0.000004    0.000000
   -5   -5    2    3    5    0.000001   -0.000000
   -5   -5    2    4    5   -0.000002   -0.000000
   -5   -5    2    5    5   -0.000017    0.000000
   -5   -5    3    1    1   -0.000002   -0.000000
   -5   -5    3    2    1    0.000000   -0.000000
   -5   -5    3    3    1   -0.000003   -0.000000
   -5   -5    3    4    1    0.000002    0.000000
   -5   -5    3    5    1    0.000001    0.000000
   -5   -5    3    1    2    0.000000    0.000000
   -5   -5    3    2    2    0.000000    0.000000
   -5   -5    3    3    2   -0.000001    0.000000
   -5   -5    3    4    2   -0.000000   -0.000000
   -5   -5    3    5    2   -0.000001   -0.000000
   -5   -5    3    1    3   -0.000003    0.000000
   -5   -5    3    2    3   -0.000001   -0.000000
   -5   -5    3    3    3    0.000002    0.000000
   -5   -5    3    4    3    0.000001   -0.000000
   -5   -5    3    5    3    0.000000    0.000000
   -5   -5    3    1    4    0.000002   -0.000000
   -5   -5    3    2    4   -0.000000    0.000000
   -5   -5    3    3    4    0.000001    0.000000
   -5   -5    3    4    4    0.000001   -0.000000
   -5   -5    3    5    4   -0.000002   -0.000000
   -5   -5    3    1    5    0.000001   -0.000000
   -5   -5    3    2    5   -0.000001    0.000000
   -5   -5    3    3    5    0.000000   -0.000000
   -5   -5    3    4    5   -0.000002    0.000000
   -5   -5    3    5    5   -0.000000   -0.000000
   -5   -5    4    1    1   -0.000001   -0.000000
   -5   -5    4    2    1    0.000000   -0.000000
   -5   -5    4    3    1   -0.000000    0.000000
   -5   -5    4    4    1    0.000000   -0.000000
   -5   -5    4    5    1    0.000001    0.000000
   -5   -5    4    1    2    0.000000   -0.000000
   -5   -5    4    2    2   -0.000000   -0.000000
   -5   -5    4    3    2   -0.000000    0.000000
   -5   -5    4    4    2   -0.000000   -0.000000
   -5   -5    4    5    2    0.000000   -0.000000
   -5   -5    4    1    3   -0.000000   -0.000000
   -5   -5    4    2    3   -0.000000   -0.000000
   -5   -5    4    3    3    0.000000    0.000000
   -5   -5    4    4    3    0.000000    0.000000
   -5   -5    4    5    3    0.000000   -0.000000
   -5   -5    4    1    4    0.000000    0.000000
   -5   -5    4    2    4   -0.000000    0.000000
   -5   -5    4    3    4    0.000000   -0.000000
   -5   -5    4    4    4    0.000000   -0.000000
   -5   -5    4    5    4   -0.000000    0.000000
   -5   -5    4    1    5    0.000001   -0.000000
   -5   -5    4    2    5    0.000000    0.000000
   -5   -5    4    3    5    0.000000    0.000000
   -5   -5    4    4    5   -0.000000   -0.000000
   -5   -5    4    5    5    0.000000    0.000000
   -5   -5    5    1    1   -0.000000   -0.000000
   -5   -5    5    2    1    0.000000    0.000000
   -5   -5    5    3    1   -0.000000   -0.000000
   -5   -5    5    4    1   -0.000000   -0.000000
   -5   -5    5    5    1    0.000000    0.000000
   -5   -5    5    1    2   -0.000000    0.000000
   -5   -5    5    2    2   -0.000000   -0.000000
   -5   -5    5    3    2    0.000000    0.000000
   -5   -5    5    4    2    0.000000    0.000000
   -5   -5    5    5    2   -0.000000    0.000000
   -5   -5    5    1    3    0.000000   -0.000000
   -5   -5    5    2    3   -0.000000    0.000000
   -5   -5    5    3    3   -0.000000   -0.000000
   -5   -5    5    4    3   -0.000000    0.000000
   -5   -5    5    5    3   -0.000000    0.000000
   -5   -5    5    1    4    0.000000   -0.000000
   -5   -5    5    2    4   -0.000000    0.000000
   -5   -5    5    3    4    0.000000    0.000000
   -5   -5    5    4    4   -0.000000    0.000000
   -5   -5    5    5    4    0.000000    0.000000
   -5   -5    5    1    5   -0.000000    0.000000
   -5   -5    5    2    5    0.000000    0.000000
   -5   -5    5    3    5    0.000000    0.000000
   -5   -5    5    4    5   -0.000000    0.000000
   -5   -5    5    5    5   -0.000000    0.000000
   -5   -4   -5    1    1    0.000002    0.000000
   -5   -4   -5    2    1    0.000000    0.000000
   -5   -4   -5    3    1    0.000000   -0.000000
   -5   -4   -5    4    1   -0.000000    0.000000
   -5   -4   -5    5    1    0.000000    0.000000
   -5   -4   -5    1    2    0.000000   -0.000000
   -5   -4   -5    2    2    0.000001    0.000000
   -5   -4   -5    3    2    0.000000    0.000000
   -5   -4   -5    4    2   -0.000000   -0.000000
   -5   -4   -5    5    2   -0.000000    0.000000
   -5   -4   -5    1    3    0.000000    0.000000
   -5   -4   -5    2    3    0.000000   -0.000000
   -5   -4   -5    3    3   -0.000000   -0.000000
   -5   -4   -5    4    3   -0.000000    0.000000
   -5   -4   -5    5    3    0.000000    0.000000
   -5   -4   -5    1    4   -0.000000   -0.000000
   -5   -4   -5    2    4   -0.000000    0.000000
   -5   -4   -5    3    4   -0.000000   -0.000000
   -5   -4   -5    4    4   -0.000000   -0.000000
   -5   -4   -5    5    4   -0.000000    0.000000
   -5   -4   -5    1    5    0.000000   -0.000000
   -5   -4   -5    2    5   -0.000000   -0.000000
   -5   -4   -5    3    5    0.000000   -0.000000
   -5   -4   -5    4    5   -0.000000   -0.000000
   -5   -4   -5    5    5   -0.000001    0.000000
   -5   -4   -4    1    1   -0.000001    0.000000
   -5   -4   -4    2    1    0.000000   -0.000000
   -5   -4   -4    3    1    0.000000   -0.000000
   -5   -4   -4    4    1   -0.000000    0.000000
   -5   -4   -4    5    1    0.000001   -0.000000
   -5   -4   -4    1    2    0.000000    0.000000
   -5   -4   -4    2    2   -0.000001   -0.000000
   -5   -4   -4    3    2    0.000000    0.000000
   -5   -4   -4    4    2    0.000000    0.000000
   -5   -4   -4    5    2   -0.000000   -0.000000
   -5   -4   -4    1    3    0.000000    0.000000
   -5   -4   -4    2    3    0.000000   -0.000000
   -5   -4   -4    3    3    0.000000    0.000000
   -5   -4   -4    4    3    0.000000   -0.000000
   -5   -4   -4    5    3    0.000001    0.000000
   -5   -4   -4    1    4   -0.000000   -0.000000
   -5   -4   -4    2    4    0.000000   -0.000000
   -5   -4   -4    3    4   -0.000000    0.000000
   -5   -4   -4    4    4    0.000000   -0.000000
   -5   -4   -4    5    4   -0.000001   -0.000000
   -5   -4   -4    1    5    0.000001    0.000000
   -5   -4   -4    2    5   -0.000000    0.000000
   -5   -4   -4    3    5    0.000001   -0.000000
   -5   -4   -4    4    5   -0.000001    0.000000
   -5   -4   -4    5    5   -0.000002   -0.000000
   -5   -4   -3    1    1   -0.000001    0.000000
   -5   -4   -3    2    1   -0.000000    0.000000
   -5   -4   -3    3    1   -0.000001   -0.000000
   -5   -4   -3    4    1    0.000001    0.000000
   -5   -4   -3    5    1   -0.000001    0.000000
   -5   -4   -3    1    2   -0.000000   -0.000000
   -5   -4   -3    2    2   -0.000000   -0.000000
   -5   -4   -3    3    2   -0.000000   -0.000000
   -5   -4   -3    4    2   -0.000000   -0.000000
   -5   -4   -3    5    2    0.000001   -0.000000
   -5   -4   -3    1    3   -0.000001    0.000000
   -5   -4   -3    2    3   -0.000000    0.000000
   -5   -4   -3    3    3    0.000000   -0.000000
   -5   -4   -3    4    3    0.000000    0.000000
   -5   -4   -3    5    3   -0.000001    0.000000
   -5   -4   -3    1    4    0.000001   -0.000000
   -5   -4   -3    2    4   -0.000000    0.000000
   -5   -4   -3    3    4    0.000000   -0.000000
   -5   -4   -3    4    4   -0.000002   -0.000000
   -5   -4   -3    5    4   -0.000002   -0.000000
   -5   -4   -3    1    5   -0.000001   -0.000000
   -5   -4   -3    2    5    0.000001    0.000000
   -5   -4   -3    3    5   -0.000001   -0.000000
   -5   -4   -3    4    5   -0.000002    0.000000
   -5   -4   -3    5    5    0.000001    0.000000
   -5   -4   -2    1    1    0.000001    0.000000
   -5   -4   -2    2    1   -0.000003   -0.000000
   -5   -4   -2    3    1   -0.000005   -0.000000
   -5   -4   -2    4    1    0.000003    0.000000
   -5   -4   -2    5    1   -0.000000   -0.000000
   -5   -4   -2    1    2   -0.000003    0.000000
   -5   -4   -2    2    2   -0.000001   -0.000000
   -5   -4   -2    3    2    0.000001    0.000000
   -5   -4   -2    4    2    0.000001    0.000000
   -5   -4   -2    5    2    0.000004   -0.000000
   -5   -4   -2    1    3   -0.000005    0.000000
   -5   -4   -2    2    3    0.000001   -0.000000
   -5   -4   -2    3    3   -0.000001    0.000000
   -5   -4   -2    4    3    0.000001   -0.000000
   -5   -4   -2    5    3   -0.000004    0.000000
   -5   -4   -2    1    4    0.000004   -0.000000
   -5   -4   -2    2    4    0.000001   -0.000000
   -5   -4   -2    3    4    0.000001    0.000000
   -5   -4   -2    4    4   -0.000006    0.000000
   -5   -4   -2    5    4   -0.000012   -0.000000
   -5   -4   -2    1    5   -0.000000    0.000000
   -5   -4   -2    2    5    0.000004    0.000000
   -5   -4   -2    3    5   -0.000004   -0.000000
   -5   -4   -2    4    5   -0.000012    0.000000
   -5   -4   -2    5    5    0.000005    0.000000
   -5   -4   -1    1    1    0.000058    0.000000
   -5   -4   -1    2    1    0.000023    0.000000
   -5   -4   -1    3    1   -0.000007   -0.000000
   -5   -4   -1    4    1   -0.000042    0.000000
   -5   -4   -1    5    1   -0.000073    0.000000
   -5   -4   -1    1    2    0.000023   -0.000000
   -5   -4   -1    2    2   -0.000006   -0.000000
   -5   -4   -1    3    2    0.000020    0.000000
   -5   -4   -1    4    2    0.000014    0.000000
   -5   -4   -1    5    2   -0.000012   -0.000000
   -5   -4   -1    1    3   -0.000007    0.000000
   -5   -4   -1    2    3    0.000020   -0.000000
   -5   -4   -1    3    3    0.000003    0.000000
   -5   -4   -1    4    3   -0.000001    0.000000
   -5   -4   -1    5    3    0.000017    0.000000
   -5   -4   -1    1    4   -0.000042   -0.000000
   -5   -4   -1    2    4    0.000014   -0.000000
   -5   -4   -1    3    4   -0.000001   -0.000000
   -5   -4   -1    4    4    0.000005    0.000000
   -5   -4   -1    5    4    0.000008    0.000000
   -5   -4   -1    1    5   -0.000073   -0.000000
   -5   -4   -1    2    5   -0.000012    0.000000
   -5   -4   -1    3    5    0.000017   -0.000000
   -5   -4   -1    4    5    0.000008   -0.000000
   -5   -4   -1    5    5    0.000040    0.000000
   -5   -4    0    1    1    0.000029   -0.000000
   -5   -4    0    2    1    0.000039   -0.000000
   -5   -4    0    3    1   -0.000081    0.000000
   -5   -4    0    4    1    0.000031   -0.000000
   -5   -4    0    5    1   -0.000101    0.000000
   -5   -4    0    1    2    0.000039    0.000000
   -5   -4    0    2    2    0.000148    0.000000
   -5   -4    0    3    2   -0.000068    0.000000
   -5   -4    0    4    2    0.000041   -0.000000
   -5   -4    0    5    2   -0.000024   -0.000000
   -5   -4    0    1    3   -0.000081    0.000000
   -5   -4    0    2    3   -0.000068   -0.000000
   -5   -4    0    3    3   -0.000071   -0.000000
   -5   -4    0    4    3    0.000052    0.000000
   -5   -4    0    5    3    0.000082    0.000000
   -5   -4    0    1    4    0.000031    0.000000
   -5   -4    0    2    4    0.000041    0.000000
   -5   -4    0    3    4    0.000052   -0.000000
   -5   -4    0    4    4   -0.000004    0.000000
   -5   -4    0    5    4   -0.000009    0.000000
   -5   -4    0    1    5   -0.000101   -0.000000
   -5   -4    0    2    5   -0.000024    0.000000
   -5   -4    0    3    5    0.000082    0.000000
   -5   -4    0    4    5   -0.000009   -0.000000
   -5   -4    0    5    5    0.000013    0.000000
   -5   -4    1    1    1   -0.000063   -0.000000
   -5   -4    1    2    1    0.000163   -0.000000
   -5   -4    1    3    1    0.000052    0.000000
   -5   -4    1    4    1    0.000008    0.000000
   -5   -4    1    5    1   -0.000015    0.000000
   -5   -4    1    1    2    0.000163    0.000000
   -5   -4    1    2    2    0.000029    0.000000
   -5   -4    1    3    2    0.000047    0.000000
   -5   -4    1    4    2   -0.000027   -0.000000
   -5   -4    1    5    2   -0.000017    0.000000
   -5   -4    1    1    3    0.000053   -0.000000
   -5   -4    1    2    3    0.000047   -0.000000
   -5   -4    1    3    3    0.000033   -0.000000
   -5   -4    1    4    3   -0.000009   -0.000000
   -5   -4    1    5    3   -0.000008    0.000000
   -5   -4    1    1    4    0.000008   -0.000000
   -5   -4    1    2    4   -0.000027    0.000000
   -5   -4    1    3    4   -0.000009    0.000000
   -5   -4    1    4    4    0.000006    0.000000
   -5   -4    1    5    4   -0.000012   -0.000000
   -5   -4    1    1    5   -0.000015   -0.000000
   -5   -4    1    2    5   -0.000017   -0.000000
   -5   -4    1    3    5   -0.000008   -0.000000
   -5   -4    1    4    5   -0.000012    0.000000
   -5   -4    1    5    5   -0.000049    0.000000
   -5   -4    2    1    1   -0.000081   -0.000000
   -5   -4    2    2    1   -0.000034   -0.000000
   -5   -4    2    3    1   -0.000006   -0.000000
   -5   -4    2    4    1    0.000011    0.000000
   -5   -4    2    5    1    0.000004   -0.000000
   -5   -4    2    1    2   -0.000034    0.000000
   -5   -4    2    2    2   -0.000002    0.000000
   -5   -4    2    3    2   -0.000003   -0.000000
   -5   -4    2    4    2    0.000006    0.000000
   -5   -4    2    5    2    0.000008   -0.000000
   -5   -4    2    1    3   -0.000006    0.000000
   -5   -4    2    2    3   -0.000003    0.000000
   -5   -4    2    3    3    0.000005    0.000000
   -5   -4    2    4    3    0.000003    0.000000
   -5   -4    2    5    3    0.000001    0.000000
   -5   -4    2    1    4    0.000011   -0.000000
   -5   -4    2    2    4    0.000006   -0.000000
   -5   -4    2    3    4    0.000003   -0.000000
   -5   -4    2    4    4   -0.000002   -0.000000
   -5   -4    2    5    4   -0.000000    0.000000
   -5   -4    2    1    5    0.000004    0.000000
   -5   -4    2    2    5    0.000008    0.000000
   -5   -4    2    3    5    0.000001   -0.000000
   -5   -4    2    4    5    0.000000   -0.000000
   -5   -4    2    5    5    0.000011   -0.000000
   -5   -4    3    1    1    0.000000   -0.000000
   -5   -4    3    2    1    0.000002    0.000000
   -5   -4    3    3    1   -0.000005   -0.000000
   -5   -4    3    4    1    0.000000    0.000000
   -5   -4    3    5    1   -0.000000    0.000000
   -5   -4    3    1    2    0.000002   -0.000000
   -5   -4    3    2    2   -0.000000   -0.000000
   -5   -4    3    3    2   -0.000000    0.000000
   -5   -4    3    4    2    0.000000    0.000000
   -5   -4    3    5    2   -0.000000    0.000000
   -5   -4    3    1    3   -0.000005    0.000000
   -5   -4    3    2    3   -0.000000   -0.000000
   -5   -4    3    3    3   -0.000000    0.000000
   -5   -4    3    4    3    0.000002   -0.000000
   -5   -4    3    5    3   -0.000001   -0.000000
   -5   -4    3    1    4    0.000000   -0.000000
   -5   -4    3    2    4    0.000000   -0.000000
   -5   -4    3    3    4    0.000002    0.000000
   -5   -4    3    4    4    0.000001    0.000000
   -5   -4    3    5    4    0.000001    0.000000
   -5   -4    3    1    5   -0.000000   -0.000000
   -5   -4    3    2    5   -0.000000   -0.000000
   -5   -4    3    3    5   -0.000001    0.000000
   -5   -4    3    4    5    0.000001   -0.000000
   -5   -4    3    5    5   -0.000003   -0.000000
   -5   -4    4    1    1    0.000002    0.000000
   -5   -4    4    2    1    0.000000   -0.000000
   -5   -4    4    3    1    0.000001   -0.000000
   -5   -4    4    4    1    0.000000    0.000000
   -5   -4    4    5    1    0.000000    0.000000
   -5   -4    4    1    2    0.000000    0.000000
   -5   -4    4    2    2    0.000000    0.000000
   -5   -4    4    3    2    0.000000   -0.000000
   -5   -4    4    4    2   -0.000001   -0.000000
   -5   -4    4    5    2   -0.000000    0.000000
   -5   -4    4    1    3    0.000001    0.000000
   -5   -4    4    2    3    0.000000    0.000000
   -5   -4    4    3    3   -0.000001    0.000000
   -5   -4    4    4    3   -0.000000    0.000000
   -5   -4    4    5    3    0.000000   -0.000000
   -5   -4    4    1    4    0.000000   -0.000000
   -5   -4    4    2    4   -0.000001    0.000000
   -5   -4    4    3    4   -0.000000   -0.000000
   -5   -4    4    4    4   -0.000001   -0.000000
   -5   -4    4    5    4   -0.000001    0.000000
   -5   -4    4    1    5    0.000000   -0.000000
   -5   -4    4    2    5   -0.000000   -0.000000
   -5   -4    4    3    5    0.000000    0.000000
   -5   -4    4    4    5   -0.000000   -0.000000
   -5   -4    4    5    5   -0.000001    0.000000
   -5   -4    5    1    1   -0.000002   -0.000000
   -5   -4    5    2    1   -0.000000   -0.000000
   -5   -4    5    3    1   -0.000000    0.000000
   -5   -4    5    4    1    0.000000   -0.000000
   -5   -4    5    5    1   -0.000000   -0.000000
   -5   -4    5    1    2   -0.000000    0.000000
   -5   -4    5    2    2   -0.000001   -0.000000
   -5   -4    5    3    2   -0.000000   -0.000000
   -5   -4    5    4    2    0.000000    0.000000
   -5   -4    5    5    2    0.000000   -0.000000
   -5   -4    5    1    3   -0.000000   -0.000000
   -5   -4    5    2    3   -0.000000    0.000000
   -5   -4    5    3    3    0.000000    0.000000
   -5   -4    5    4    3    0.000000   -0.000000
   -5   -4    5    5    3   -0.000000   -0.000000
   -5   -4    5    1    4    0.000000    0.000000
   -5   -4    5    2    4    0.000000   -0.000000
   -5   -4    5    3    4    0.000000    0.000000
   -5   -4    5    4    4    0.000000    0.000000
   -5   -4    5    5    4    0.000000   -0.000000
   -5   -4    5    1    5   -0.000000    0.000000
   -5   -4    5    2    5    0.000000    0.000000
   -5   -4    5    3    5   -0.000000    0.000000
   -5   -4    5    4    5    0.000000    0.000000
   -5   -4    5    5    5    0.000001   -0.000000
   -5   -3   -5    1    1   -0.000000    0.000000
   -5   -3   -5    2    1    0.000000    0.000000
   -5   -3   -5    3    1   -0.000000    0.000000
   -5   -3   -5    4    1   -0.000000   -0.000000
   -5   -3   -5    5    1    0.000001    0.000000
   -5   -3   -5    1    2    0.000000   -0.000000
   -5   -3   -5    2    2    0.000000   -0.000000
   -5   -3   -5    3    2    0.000000   -0.000000
   -5   -3   -5    4    2    0.000000    0.000000
   -5   -3   -5    5    2    0.000000    0.000000
   -5   -3   -5    1    3   -0.000000   -0.000000
   -5   -3   -5    2    3    0.000000    0.000000
   -5   -3   -5    3    3   -0.000000   -0.000000
   -5   -3   -5    4    3   -0.000000   -0.000000
   -5   -3   -5    5    3    0.000000   -0.000000
   -5   -3   -5    1    4   -0.000000    0.000000
   -5   -3   -5    2    4    0.000000   -0.000000
   -5   -3   -5    3    4   -0.000000    0.000000
   -5   -3   -5    4    4   -0.000001   -0.000000
   -5   -3   -5    5    4   -0.000000   -0.000000
   -5   -3   -5    1    5    0.000001   -0.000000
   -5   -3   -5    2    5    0.000000   -0.000000
   -5   -3   -5    3    5    0.000000    0.000000
   -5   -3   -5    4    5   -0.000000    0.000000
   -5   -3   -5    5    5   -0.000000    0.000000
   -5   -3   -4    1    1    0.000001   -0.000000
   -5   -3   -4    2    1   -0.000000   -0.000000
   -5   -3   -4    3    1   -0.000000    0.000000
   -5   -3   -4    4    1   -0.000000    0.000000
   -5   -3   -4    5    1   -0.000000    0.000000
   -5   -3   -4    1    2   -0.000000    0.000000
   -5   -3   -4    2    2    0.000000    0.000000
   -5   -3   -4    3    2    0.000001   -0.000000
   -5   -3   -4    4    2   -0.000000    0.000000
   -5   -3   -4    5    2    0.000001   -0.000000
   -5   -3   -4    1    3   -0.000000   -0.000000
   -5   -3   -4    2    3    0.000000    0.000000
   -5   -3   -4    3    3   -0.000001   -0.000000
   -5   -3   -4    4    3   -0.000000   -0.000000
   -5   -3   -4    5    3   -0.000001   -0.000000
   -5   -3   -4    1    4   -0.000000   -0.000000
   -5   -3   -4    2    4   -0.000000   -0.000000
   -5   -3   -4    3    4   -0.000000    0.000000
   -5   -3   -4    4    4   -0.000000    0.000000
   -5   -3   -4    5    4   -0.000000   -0.000000
   -5   -3   -4    1    5   -0.000000   -0.000000
   -5   -3   -4    2    5    0.000001    0.000000
   -5   -3   -4    3    5   -0.000001    0.000000
   -5   -3   -4    4    5   -0.000000    0.000000
   -5   -3   -4    5    5    0.000002    0.000000
   -5   -3   -3    1    1   -0.000000    0.000000
   -5   -3   -3    2    1    0.000000   -0.000000
   -5   -3   -3    3    1   -0.000000    0.000000
   -5   -3   -3    4    1    0.000001   -0.000000
   -5   -3   -3    5    1    0.000001   -0.000000
   -5   -3   -3    1    2    0.000000    0.000000
   -5   -3   -3    2    2    0.000001    0.000000
   -5   -3   -3    3    2   -0.000000   -0.000000
   -5   -3   -3    4    2   -0.000000   -0.000000
   -5   -3   -3    5    2   -0.000000    0.000000
   -5   -3   -3    1    3   -0.000000   -0.000000
   -5   -3   -3    2    3   -0.000000    0.000000
   -5   -3   -3    3    3   -0.000000    0.000000
   -5   -3   -3    4    3   -0.000001    0.000000
   -5   -3   -3    5    3   -0.000000   -0.000000
   -5   -3   -3    1    4    0.000001    0.000000
   -5   -3   -3    2    4   -0.000000    0.000000
   -5   -3   -3    3    4   -0.000001   -0.000000
   -5   -3   -3    4    4   -0.000002    0.000000
   -5   -3   -3    5    4   -0.000000    0.000000
   -5   -3   -3    1    5    0.000001    0.000000
   -5   -3   -3    2    5   -0.000000   -0.000000
   -5   -3   -3    3    5   -0.000000    0.000000
   -5   -3   -3    4    5   -0.000000   -0.000000
   -5   -3   -3    5    5    0.000006   -0.000000
   -5   -3   -2    1    1    0.000003    0.000000
   -5   -3   -2    2    1    0.000000   -0.000000
   -5   -3   -2    3    1   -0.000005   -0.000000
   -5   -3   -2    4    1   -0.000001    0.000000
   -5   -3   -2    5    1   -0.000007   -0.000000
   -5   -3   -2    1    2    0.000000    0.000000
   -5   -3   -2    2    2    0.000002    0.000000
   -5   -3   -2    3    2    0.000001   -0.000000
   -5   -3   -2    4    2    0.000005   -0.000000
   -5   -3   -2    5    2   -0.000001    0.000000
   -5   -3   -2    1    3   -0.000005    0.000000
   -5   -3   -2    2    3    0.000001    0.000000
   -5   -3   -2    3    3    0.000000   -0.000000
   -5   -3   -2    4    3    0.000004   -0.000000
   -5   -3   -2    5    3    0.000006   -0.000000
   -5   -3   -2    1    4   -0.000001   -0.000000
   -5   -3   -2    2    4    0.000005    0.000000
   -5   -3   -2    3    4    0.000004    0.000000
   -5   -3   -2    4    4   -0.000006   -0.000000
   -5   -3   -2    5    4    0.000003    0.000000
   -5   -3   -2    1    5   -0.000007    0.000000
   -5   -3   -2    2    5   -0.000001   -0.000000
   -5   -3   -2    3    5    0.000006    0.000000
   -5   -3   -2    4    5    0.000003   -0.000000
   -5   -3   -2    5    5    0.000018   -0.000000
   -5   -3   -1    1    1    0.000024    0.000000
   -5   -3   -1    2    1   -0.000013   -0.000000
[...]
    6    3    1    2    1   -0.000006    0.000000
    6    3    1    3    1   -0.000002   -0.000000
    6    3    1    4    1   -0.000009   -0.000000
    6    3    1    5    1   -0.000006   -0.000000
    6    3    1    1    2   -0.000006   -0.000000
    6    3    1    2    2    0.000004    0.000000
    6    3    1    3    2   -0.000007    0.000000
    6    3    1    4    2    0.000003    0.000000
    6    3    1    5    2   -0.000003    0.000000
    6    3    1    1    3   -0.000002    0.000000
    6    3    1    2    3   -0.000007   -0.000000
    6    3    1    3    3   -0.000004   -0.000000
    6    3    1    4    3    0.000001    0.000000
    6    3    1    5    3   -0.000006    0.000000
    6    3    1    1    4   -0.000009    0.000000
    6    3    1    2    4    0.000003   -0.000000
    6    3    1    3    4    0.000001   -0.000000
    6    3    1    4    4    0.000002    0.000000
    6    3    1    5    4    0.000005    0.000000
    6    3    1    1    5   -0.000006    0.000000
    6    3    1    2    5   -0.000003   -0.000000
    6    3    1    3    5   -0.000006   -0.000000
    6    3    1    4    5    0.000005   -0.000000
    6    3    1    5    5    0.000016    0.000000
    6    3    2    1    1    0.000003   -0.000000
    6    3    2    2    1    0.000000    0.000000
    6    3    2    3    1   -0.000001   -0.000000
    6    3    2    4    1   -0.000001    0.000000
    6    3    2    5    1    0.000002   -0.000000
    6    3    2    1    2    0.000000   -0.000000
    6    3    2    2    2    0.000000   -0.000000
    6    3    2    3    2   -0.000000    0.000000
    6    3    2    4    2   -0.000000   -0.000000
    6    3    2    5    2    0.000000   -0.000000
    6    3    2    1    3   -0.000001    0.000000
    6    3    2    2    3   -0.000000   -0.000000
    6    3    2    3    3    0.000001    0.000000
    6    3    2    4    3   -0.000000    0.000000
    6    3    2    5    3   -0.000001   -0.000000
    6    3    2    1    4   -0.000001   -0.000000
    6    3    2    2    4   -0.000000    0.000000
    6    3    2    3    4   -0.000000   -0.000000
    6    3    2    4    4   -0.000002    0.000000
    6    3    2    5    4    0.000001    0.000000
    6    3    2    1    5    0.000002    0.000000
    6    3    2    2    5    0.000000    0.000000
    6    3    2    3    5   -0.000001    0.000000
    6    3    2    4    5    0.000001   -0.000000
    6    3    2    5    5    0.000009   -0.000000
    6    3    3    1    1    0.000001    0.000000
    6    3    3    2    1    0.000001   -0.000000
    6    3    3    3    1   -0.000001   -0.000000
    6    3    3    4    1   -0.000000    0.000000
    6    3    3    5    1    0.000001    0.000000
    6    3    3    1    2    0.000001    0.000000
    6    3    3    2    2   -0.000000   -0.000000
    6    3    3    3    2   -0.000000   -0.000000
    6    3    3    4    2    0.000000    0.000000
    6    3    3    5    2   -0.000001    0.000000
    6    3    3    1    3   -0.000001    0.000000
    6    3    3    2    3   -0.000000    0.000000
    6    3    3    3    3    0.000001   -0.000000
    6    3    3    4    3    0.000000    0.000000
    6    3    3    5    3    0.000000   -0.000000
    6    3    3    1    4   -0.000000   -0.000000
    6    3    3    2    4    0.000000   -0.000000
    6    3    3    3    4    0.000000   -0.000000
    6    3    3    4    4   -0.000000   -0.000000
    6    3    3    5    4    0.000001    0.000000
    6    3    3    1    5    0.000001   -0.000000
    6    3    3    2    5   -0.000001   -0.000000
    6    3    3    3    5    0.000000    0.000000
    6    3    3    4    5    0.000001   -0.000000
    6    3    3    5    5    0.000001    0.000000
    6    3    4    1    1   -0.000001   -0.000000
    6    3    4    2    1    0.000000    0.000000
    6    3    4    3    1   -0.000001   -0.000000
    6    3    4    4    1    0.000000    0.000000
    6    3    4    5    1    0.000001   -0.000000
    6    3    4    1    2    0.000000   -0.000000
    6    3    4    2    2    0.000001   -0.000000
    6    3    4    3    2    0.000000    0.000000
    6    3    4    4    2   -0.000000   -0.000000
    6    3    4    5    2    0.000000    0.000000
    6    3    4    1    3   -0.000001    0.000000
    6    3    4    2    3    0.000000   -0.000000
    6    3    4    3    3   -0.000000    0.000000
    6    3    4    4    3    0.000000   -0.000000
    6    3    4    5    3   -0.000000   -0.000000
    6    3    4    1    4    0.000000   -0.000000
    6    3    4    2    4   -0.000000    0.000000
    6    3    4    3    4    0.000000    0.000000
    6    3    4    4    4   -0.000000   -0.000000
    6    3    4    5    4    0.000000    0.000000
    6    3    4    1    5    0.000001    0.000000
    6    3    4    2    5    0.000000   -0.000000
    6    3    4    3    5   -0.000000    0.000000
    6    3    4    4    5    0.000000   -0.000000
    6    3    4    5    5    0.000001    0.000000
    6    3    5    1    1    0.000000    0.000000
    6    3    5    2    1    0.000000   -0.000000
    6    3    5    3    1   -0.000000   -0.000000
    6    3    5    4    1    0.000000   -0.000000
    6    3    5    5    1   -0.000000    0.000000
    6    3    5    1    2    0.000000    0.000000
    6    3    5    2    2    0.000001    0.000000
    6    3    5    3    2    0.000000    0.000000
    6    3    5    4    2    0.000000    0.000000
    6    3    5    5    2    0.000000    0.000000
    6    3    5    1    3   -0.000000    0.000000
    6    3    5    2    3    0.000000   -0.000000
    6    3    5    3    3   -0.000001    0.000000
    6    3    5    4    3   -0.000000    0.000000
    6    3    5    5    3   -0.000000   -0.000000
    6    3    5    1    4    0.000000    0.000000
    6    3    5    2    4    0.000000   -0.000000
    6    3    5    3    4    0.000000   -0.000000
    6    3    5    4    4   -0.000000   -0.000000
    6    3    5    5    4    0.000000    0.000000
    6    3    5    1    5   -0.000000   -0.000000
    6    3    5    2    5    0.000000   -0.000000
    6    3    5    3    5   -0.000000    0.000000
    6    3    5    4    5    0.000001   -0.000000
    6    3    5    5    5   -0.000000   -0.000000
    6    4   -5    1    1    0.000001    0.000000
    6    4   -5    2    1   -0.000000   -0.000000
    6    4   -5    3    1    0.000000    0.000000
    6    4   -5    4    1   -0.000001    0.000000
    6    4   -5    5    1   -0.000001    0.000000
    6    4   -5    1    2   -0.000000    0.000000
    6    4   -5    2    2    0.000001   -0.000000
    6    4   -5    3    2    0.000000   -0.000000
    6    4   -5    4    2   -0.000000    0.000000
    6    4   -5    5    2   -0.000000   -0.000000
    6    4   -5    1    3    0.000000   -0.000000
    6    4   -5    2    3    0.000000    0.000000
    6    4   -5    3    3   -0.000000   -0.000000
    6    4   -5    4    3   -0.000000    0.000000
    6    4   -5    5    3   -0.000000    0.000000
    6    4   -5    1    4   -0.000001   -0.000000
    6    4   -5    2    4   -0.000000   -0.000000
    6    4   -5    3    4    0.000000   -0.000000
    6    4   -5    4    4   -0.000000    0.000000
    6    4   -5    5    4    0.000000   -0.000000
    6    4   -5    1    5   -0.000001   -0.000000
    6    4   -5    2    5   -0.000000    0.000000
    6    4   -5    3    5   -0.000000   -0.000000
    6    4   -5    4    5    0.000000    0.000000
    6    4   -5    5    5   -0.000000    0.000000
    6    4   -4    1    1   -0.000001   -0.000000
    6    4   -4    2    1   -0.000000    0.000000
    6    4   -4    3    1   -0.000001    0.000000
    6    4   -4    4    1    0.000001    0.000000
    6    4   -4    5    1   -0.000000   -0.000000
    6    4   -4    1    2   -0.000000   -0.000000
    6    4   -4    2    2   -0.000000    0.000000
    6    4   -4    3    2   -0.000000    0.000000
    6    4   -4    4    2   -0.000000    0.000000
    6    4   -4    5    2   -0.000000    0.000000
    6    4   -4    1    3   -0.000001   -0.000000
    6    4   -4    2    3   -0.000000   -0.000000
    6    4   -4    3    3   -0.000001   -0.000000
    6    4   -4    4    3   -0.000000    0.000000
    6    4   -4    5    3    0.000000    0.000000
    6    4   -4    1    4    0.000001   -0.000000
    6    4   -4    2    4   -0.000000   -0.000000
    6    4   -4    3    4   -0.000000   -0.000000
    6    4   -4    4    4   -0.000001   -0.000000
    6    4   -4    5    4   -0.000001    0.000000
    6    4   -4    1    5   -0.000000    0.000000
    6    4   -4    2    5   -0.000000   -0.000000
    6    4   -4    3    5    0.000000   -0.000000
    6    4   -4    4    5   -0.000001   -0.000000
    6    4   -4    5    5   -0.000001    0.000000
    6    4   -3    1    1   -0.000018   -0.000000
    6    4   -3    2    1   -0.000001    0.000000
    6    4   -3    3    1   -0.000000   -0.000000
    6    4   -3    4    1    0.000002    0.000000
    6    4   -3    5    1    0.000010   -0.000000
    6    4   -3    1    2   -0.000001   -0.000000
    6    4   -3    2    2    0.000001   -0.000000
    6    4   -3    3    2   -0.000000   -0.000000
    6    4   -3    4    2   -0.000000    0.000000
    6    4   -3    5    2   -0.000001    0.000000
    6    4   -3    1    3   -0.000000    0.000000
    6    4   -3    2    3   -0.000000    0.000000
    6    4   -3    3    3    0.000001   -0.000000
    6    4   -3    4    3    0.000000   -0.000000
    6    4   -3    5    3   -0.000000   -0.000000
    6    4   -3    1    4    0.000002   -0.000000
    6    4   -3    2    4   -0.000000   -0.000000
    6    4   -3    3    4    0.000000    0.000000
    6    4   -3    4    4    0.000001    0.000000
    6    4   -3    5    4   -0.000002   -0.000000
    6    4   -3    1    5    0.000010    0.000000
    6    4   -3    2    5   -0.000001   -0.000000
    6    4   -3    3    5   -0.000000    0.000000
    6    4   -3    4    5   -0.000002    0.000000
    6    4   -3    5    5   -0.000007   -0.000000
    6    4   -2    1    1    0.000045    0.000000
    6    4   -2    2    1    0.000006    0.000000
    6    4   -2    3    1    0.000009   -0.000000
    6    4   -2    4    1   -0.000011   -0.000000
    6    4   -2    5    1   -0.000021   -0.000000
    6    4   -2    1    2    0.000007   -0.000000
    6    4   -2    2    2    0.000008   -0.000000
    6    4   -2    3    2    0.000002   -0.000000
    6    4   -2    4    2    0.000002    0.000000
    6    4   -2    5    2    0.000012   -0.000000
    6    4   -2    1    3    0.000009    0.000000
    6    4   -2    2    3    0.000002    0.000000
    6    4   -2    3    3    0.000000   -0.000000
    6    4   -2    4    3   -0.000002    0.000000
    6    4   -2    5    3   -0.000000    0.000000
    6    4   -2    1    4   -0.000011    0.000000
    6    4   -2    2    4    0.000002   -0.000000
    6    4   -2    3    4   -0.000002   -0.000000
    6    4   -2    4    4    0.000002    0.000000
    6    4   -2    5    4    0.000008   -0.000000
    6    4   -2    1    5   -0.000021    0.000000
    6    4   -2    2    5    0.000012    0.000000
    6    4   -2    3    5   -0.000000   -0.000000
    6    4   -2    4    5    0.000008    0.000000
    6    4   -2    5    5    0.000020    0.000000
    6    4   -1    1    1   -0.000051    0.000000
    6    4   -1    2    1   -0.000007   -0.000000
    6    4   -1    3    1   -0.000020   -0.000000
    6    4   -1    4    1    0.000024   -0.000000
    6    4   -1    5    1    0.000017   -0.000000
    6    4   -1    1    2   -0.000007    0.000000
    6    4   -1    2    2   -0.000029    0.000000
    6    4   -1    3    2   -0.000004    0.000000
    6    4   -1    4    2   -0.000000    0.000000
    6    4   -1    5    2   -0.000021    0.000000
    6    4   -1    1    3   -0.000020    0.000000
    6    4   -1    2    3   -0.000004   -0.000000
    6    4   -1    3    3   -0.000002   -0.000000
    6    4   -1    4    3    0.000009   -0.000000
    6    4   -1    5    3    0.000007    0.000000
    6    4   -1    1    4    0.000024    0.000000
    6    4   -1    2    4   -0.000000   -0.000000
    6    4   -1    3    4    0.000009    0.000000
    6    4   -1    4    4   -0.000007   -0.000000
    6    4   -1    5    4   -0.000013   -0.000000
    6    4   -1    1    5    0.000017    0.000000
    6    4   -1    2    5   -0.000021   -0.000000
    6    4   -1    3    5    0.000007   -0.000000
    6    4   -1    4    5   -0.000013    0.000000
    6    4   -1    5    5   -0.000027   -0.000000
    6    4    0    1    1    0.000096    0.000000
    6    4    0    2    1    0.000016   -0.000000
    6    4    0    3    1    0.000053   -0.000000
    6    4    0    4    1   -0.000029    0.000000
    6    4    0    5    1   -0.000073   -0.000000
    6    4    0    1    2    0.000016    0.000000
    6    4    0    2    2    0.000059   -0.000000
    6    4    0    3    2    0.000002   -0.000000
    6    4    0    4    2   -0.000002    0.000000
    6    4    0    5    2    0.000044    0.000000
    6    4    0    1    3    0.000053    0.000000
    6    4    0    2    3    0.000002    0.000000
    6    4    0    3    3    0.000012   -0.000000
    6    4    0    4    3   -0.000016    0.000000
    6    4    0    5    3    0.000022   -0.000000
    6    4    0    1    4   -0.000029   -0.000000
    6    4    0    2    4   -0.000002    0.000000
    6    4    0    3    4   -0.000016   -0.000000
    6    4    0    4    4    0.000029   -0.000000
    6    4    0    5    4    0.000044    0.000000
    6    4    0    1    5   -0.000073    0.000000
    6    4    0    2    5    0.000044   -0.000000
    6    4    0    3    5    0.000022    0.000000
    6    4    0    4    5    0.000044   -0.000000
    6    4    0    5    5    0.000004   -0.000000
    6    4    1    1    1    0.000060    0.000000
    6    4    1    2    1   -0.000001    0.000000
    6    4    1    3    1   -0.000001   -0.000000
    6    4    1    4    1   -0.000004    0.000000
    6    4    1    5    1   -0.000032    0.000000
    6    4    1    1    2   -0.000001   -0.000000
    6    4    1    2    2   -0.000020   -0.000000
    6    4    1    3    2    0.000000    0.000000
    6    4    1    4    2    0.000002    0.000000
    6    4    1    5    2   -0.000008    0.000000
    6    4    1    1    3   -0.000001    0.000000
    6    4    1    2    3    0.000000   -0.000000
    6    4    1    3    3    0.000001    0.000000
    6    4    1    4    3    0.000012    0.000000
    6    4    1    5    3   -0.000002    0.000000
    6    4    1    1    4   -0.000004   -0.000000
    6    4    1    2    4    0.000002   -0.000000
    6    4    1    3    4    0.000012   -0.000000
    6    4    1    4    4    0.000000    0.000000
    6    4    1    5    4    0.000005    0.000000
    6    4    1    1    5   -0.000032   -0.000000
    6    4    1    2    5   -0.000008   -0.000000
    6    4    1    3    5   -0.000002   -0.000000
    6    4    1    4    5    0.000005   -0.000000
    6    4    1    5    5    0.000024   -0.000000
    6    4    2    1    1    0.000002   -0.000000
    6    4    2    2    1    0.000000   -0.000000
    6    4    2    3    1   -0.000002    0.000000
    6    4    2    4    1   -0.000000   -0.000000
    6    4    2    5    1    0.000001    0.000000
    6    4    2    1    2    0.000000    0.000000
    6    4    2    2    2    0.000000    0.000000
    6    4    2    3    2    0.000000    0.000000
    6    4    2    4    2    0.000000    0.000000
    6    4    2    5    2   -0.000000    0.000000
    6    4    2    1    3   -0.000002   -0.000000
    6    4    2    2    3    0.000001   -0.000000
    6    4    2    3    3   -0.000001    0.000000
    6    4    2    4    3   -0.000000    0.000000
    6    4    2    5    3   -0.000001    0.000000
    6    4    2    1    4    0.000000    0.000000
    6    4    2    2    4    0.000000   -0.000000
    6    4    2    3    4   -0.000000   -0.000000
    6    4    2    4    4   -0.000002   -0.000000
    6    4    2    5    4   -0.000002    0.000000
    6    4    2    1    5    0.000001   -0.000000
    6    4    2    2    5   -0.000000   -0.000000
    6    4    2    3    5   -0.000001   -0.000000
    6    4    2    4    5   -0.000002   -0.000000
    6    4    2    5    5    0.000003   -0.000000
    6    4    3    1    1    0.000002    0.000000
    6    4    3    2    1    0.000001   -0.000000
    6    4    3    3    1   -0.000000   -0.000000
    6    4    3    4    1   -0.000001    0.000000
    6    4    3    5    1    0.000001   -0.000000
    6    4    3    1    2    0.000001    0.000000
    6    4    3    2    2    0.000000   -0.000000
    6    4    3    3    2    0.000001   -0.000000
    6    4    3    4    2    0.000000   -0.000000
    6    4    3    5    2    0.000001    0.000000
    6    4    3    1    3   -0.000000    0.000000
    6    4    3    2    3    0.000001    0.000000
    6    4    3    3    3   -0.000001    0.000000
    6    4    3    4    3    0.000000    0.000000
    6    4    3    5    3   -0.000001   -0.000000
    6    4    3    1    4   -0.000000   -0.000000
    6    4    3    2    4    0.000000    0.000000
    6    4    3    3    4    0.000000   -0.000000
    6    4    3    4    4   -0.000002   -0.000000
    6    4    3    5    4   -0.000000    0.000000
    6    4    3    1    5    0.000001    0.000000
    6    4    3    2    5    0.000001   -0.000000
    6    4    3    3    5   -0.000001   -0.000000
    6    4    3    4    5   -0.000000   -0.000000
    6    4    3    5    5    0.000003   -0.000000
    6    4    4    1    1   -0.000000    0.000000
    6    4    4    2    1   -0.000000    0.000000
    6    4    4    3    1    0.000000   -0.000000
    6    4    4    4    1    0.000000    0.000000
    6    4    4    5    1   -0.000000   -0.000000
    6    4    4    1    2   -0.000000   -0.000000
    6    4    4    2    2   -0.000000    0.000000
    6    4    4    3    2    0.000000   -0.000000
    6    4    4    4    2    0.000000    0.000000
    6    4    4    5    2   -0.000001   -0.000000
    6    4    4    1    3    0.000000    0.000000
    6    4    4    2    3    0.000000    0.000000
    6    4    4    3    3    0.000000   -0.000000
    6    4    4    4    3    0.000000    0.000000
    6    4    4    5    3    0.000000    0.000000
    6    4    4    1    4    0.000000   -0.000000
    6    4    4    2    4    0.000000   -0.000000
    6    4    4    3    4    0.000000   -0.000000
    6    4    4    4    4    0.000000    0.000000
    6    4    4    5    4    0.000000   -0.000000
    6    4    4    1    5   -0.000000    0.000000
    6    4    4    2    5   -0.000001    0.000000
    6    4    4    3    5    0.000000   -0.000000
    6    4    4    4    5    0.000000    0.000000
    6    4    4    5    5   -0.000001   -0.000000
    6    4    5    1    1   -0.000001   -0.000000
    6    4    5    2    1    0.000000    0.000000
    6    4    5    3    1   -0.000000   -0.000000
    6    4    5    4    1    0.000001   -0.000000
    6    4    5    5    1    0.000001   -0.000000
    6    4    5    1    2    0.000000   -0.000000
    6    4    5    2    2   -0.000001    0.000000
    6    4    5    3    2   -0.000000    0.000000
    6    4    5    4    2    0.000000   -0.000000
    6    4    5    5    2    0.000000    0.000000
    6    4    5    1    3   -0.000000    0.000000
    6    4    5    2    3   -0.000000   -0.000000
    6    4    5    3    3    0.000000    0.000000
    6    4    5    4    3    0.000000   -0.000000
    6    4    5    5    3    0.000000   -0.000000
    6    4    5    1    4    0.000001    0.000000
    6    4    5    2    4    0.000000    0.000000
    6    4    5    3    4   -0.000000    0.000000
    6    4    5    4    4    0.000000   -0.000000
    6    4    5    5    4   -0.000000    0.000000
    6    4    5    1    5    0.000001    0.000000
    6    4    5    2    5    0.000000   -0.000000
    6    4    5    3    5    0.000000    0.000000
    6    4    5    4    5   -0.000000   -0.000000
    6    4    5    5    5    0.000000   -0.000000
